# vtk DataFile Version 2.0
FUN3D:global_image_vtk
ASCII
DATASET UNSTRUCTURED_GRID
POINTS 213 double
   -0.5474685441687793E-02    0.4999999999999764E-30    0.2504941971167291E+01
    0.1212121212121468E-30    0.8038138598670591E-04    0.4999999999999973E-30
    0.1245419105183472E+01    0.9999999999999700E-30    0.2504941971167291E+01
    0.1212121212121468E-30    0.1039425058013136E-03    0.9999999999999938E-30
    0.2497696093128780E+01    0.4999999999999850E-30    0.2504941971167291E+01
    0.1212121212121468E-30    0.1101298164665758E-03    0.4999999999999977E-30
    0.3750590968915824E+01    0.9999999999999978E-30    0.2504941971167291E+01
    0.1212121212121468E-30    0.1356499004943613E-03    0.9999999999999938E-30
    0.5003221331742151E+01    0.5000000000000137E-30    0.2504941971167291E+01
    0.1212121212121468E-30    0.9668873038898343E-04    0.4999999999999973E-30
    0.5004676687979097E+01    0.1000000000000017E-29    0.1281291202167040E+01
    0.5000000000001601E-30    0.1638053019384356E-03    0.9999999999999945E-30
    0.5004772673778115E+01    0.5000000000000218E-30    0.2775079906482874E-01
    0.1000000000000098E-29    0.1903478008447587E-03    0.4999999999999975E-30
    0.5003581183341212E+01    0.1000000000000011E-29   -0.1225853508883529E+01
    0.5000000000001220E-30    0.1607765204486578E-03    0.9999999999999940E-30
    0.5001952533742191E+01    0.5000000000000063E-30   -0.2496589036641631E+01
    0.1212121212121388E-30    0.1082258890302559E-03    0.4999999999999977E-30
    0.3750348111606544E+01    0.9999999999999955E-30   -0.2496589036641631E+01
    0.1212121212121388E-30    0.1458753696815808E-03    0.9999999999999940E-30
    0.2498611462994928E+01    0.4999999999999894E-30   -0.2496589036641631E+01
    0.1212121212121388E-30    0.1008933264248228E-03    0.4999999999999971E-30
    0.1247175269333276E+01    0.9999999999999784E-30   -0.2496589036641631E+01
    0.1212121212121388E-30    0.1108587619169659E-03    0.9999999999999948E-30
   -0.3383959865719240E-02    0.4999999999999845E-30   -0.2496589036641631E+01
    0.1212121212121388E-30    0.8107259626494230E-04    0.4999999999999976E-30
   -0.4257768979765568E-02    0.9999999999999770E-30   -0.1225734811642590E+01
    0.5000000000001227E-30    0.3415458742295295E-04    0.9999999999999938E-30
   -0.5251592448509217E-02    0.4999999999999781E-30    0.2619486024420437E-01
    0.1000000000000096E-29    0.1038724387187888E-03    0.4999999999999977E-30
   -0.5676060312426806E-02    0.9999999999999722E-30    0.1278221569065707E+01
    0.5000000000001440E-30    0.8224601702150402E-04    0.9999999999999948E-30
    0.9003209617952581E+00    0.4999999999999677E-30    0.1608979112280158E+01
    0.1000000000000150E-29    0.8704140727672277E-04    0.4999999999999976E-30
    0.3983172210692289E+01    0.9999999999999983E-30   -0.1561211904840279E+01
    0.5000000000001152E-30    0.1757116720370597E-03    0.9999999999999940E-30
    0.4035602039224469E+01    0.5000000000000060E-30    0.1486760030415520E+01
    0.1000000000000167E-29    0.1713312862106631E-03    0.4999999999999977E-30
    0.1036613723302902E+01    0.9999999999999726E-30   -0.1455626429916848E+01
    0.5000000000001214E-30    0.1047189301532918E-03    0.9999999999999948E-30
    0.1094353480630802E+01    0.4999999999999703E-30   -0.2964622010671855E+00
    0.1000000000000087E-29    0.1260590236917272E-03    0.4999999999999977E-30
    0.7298400267480001E+00    0.9999999999999642E-30    0.6874684746719112E+00
    0.5000000000000584E-30    0.1044598640544962E-03    0.9999999999999936E-30
    0.1617018659308944E+01    0.4999999999999690E-30    0.8553208024939364E+00
    0.1000000000000062E-29    0.1529810904974394E-03    0.4999999999999978E-30
    0.2143199662875790E+01    0.9999999999999803E-30   -0.1627128509216730E+01
    0.5000000000001161E-30    0.1606170425226817E-03    0.9999999999999940E-30
    0.4088840445400889E+01    0.5000000000000094E-30   -0.4351047825936269E+00
    0.1000000000000044E-29    0.2719933294109127E-03    0.4999999999999979E-30
    0.2977916511248925E+01    0.9999999999999836E-30   -0.8334991483094506E+00
    0.5000000000000389E-30    0.2245596931861324E-03    0.9999999999999955E-30
    0.3044093241383418E+01    0.4999999999999916E-30   -0.1814361225108581E+01
    0.1000000000000111E-29    0.1617000112420498E-03    0.4999999999999978E-30
    0.3427866614805211E+01    0.9999999999999922E-30    0.3813904839972493E+00
    0.5000000000000899E-30    0.2936955483429085E-03    0.9999999999999947E-30
    0.4313225355351749E+01    0.5000000000000151E-30    0.5489133376342490E+00
    0.1000000000000066E-29    0.2313009573592367E-03    0.4999999999999983E-30
    0.1823032737597358E+01    0.9999999999999717E-30    0.1771265193544254E+01
    0.5000000000001635E-30    0.1836202887151584E-03    0.9999999999999954E-30
    0.2806311152168375E+01    0.4999999999999852E-30    0.1358629373600680E+01
    0.1000000000000167E-29    0.1943492163983815E-03    0.4999999999999983E-30
    0.1891860875936711E+01    0.9999999999999717E-30   -0.8481310365607552E+00
    0.5000000000000422E-30    0.1670645501816169E-03    0.9999999999999941E-30
    0.2268769200166909E+01    0.4999999999999741E-30    0.7723691819196549E-01
    0.1000000000000103E-29    0.2072307783085310E-03    0.4999999999999980E-30
    0.5000000000000000E+01    0.5232595165182365E-45    0.2504941971167291E+01
    0.1212121212121468E-30    0.1250000000000000E+01    0.5232595165182365E-45
    0.5000000000000000E+01    0.5232595165182365E-45    0.2504941971167291E+01
    0.1212121212121468E-30    0.2500000000000000E+01    0.5232595165182365E-45
    0.5000000000000000E+01    0.5232595165182365E-45    0.2504941971167291E+01
    0.1212121212121468E-30    0.3750000000000000E+01    0.5232595165182365E-45
    0.5000000000000000E+01    0.5232595165182365E-45    0.2504941971167291E+01
    0.1212121212121468E-30    0.5000000000000000E+01    0.5232595165182365E-45
    0.3750000000000000E+01    0.5232595165182365E-45    0.2504941971167291E+01
    0.1212121212121468E-30    0.5000000000000000E+01    0.5232595165182365E-45
    0.2500000000000000E+01    0.5232595165182365E-45    0.2504941971167291E+01
    0.1212121212121468E-30    0.5000000000000000E+01    0.5232595165182365E-45
    0.1250000000000000E+01    0.5232595165182365E-45    0.2504941971167291E+01
    0.1212121212121468E-30    0.5000000000000000E+01    0.5232595165182365E-45
    0.1244025132618614E-17    0.5232595165182365E-45    0.2504941971167291E+01
    0.1212121212121468E-30    0.5000000000000000E+01    0.5232595165182365E-45
    0.1244025132618614E-17    0.5232595165182365E-45    0.2504941971167291E+01
    0.1212121212121468E-30    0.3750000000000000E+01    0.5232595165182365E-45
    0.1244025132618614E-17    0.5232595165182365E-45    0.2504941971167291E+01
    0.1212121212121468E-30    0.2500000000000000E+01    0.5232595165182365E-45
    0.1244025132618614E-17    0.5232595165182365E-45    0.2504941971167291E+01
    0.1212121212121468E-30    0.1250000000000000E+01    0.5232595165182365E-45
    0.9588956434871093E+00    0.4088323204877291E-30    0.2504941971167291E+01
    0.1212121212121468E-30    0.9696525519543875E+00    0.8253355966549825E-30
    0.3981953078951400E+01    0.7369699780845771E-31    0.2504941971167291E+01
    0.1212121212121468E-30    0.4070563854751271E+01    0.1516277355821016E-30
    0.4036122187252337E+01    0.5331184872982393E-30    0.2504941971167291E+01
    0.1212121212121468E-30    0.1017567520094671E+01    0.8139234257758253E-30
    0.9637572773153886E+00   -0.9331067766764782E-32    0.2504941971167291E+01
    0.1212121212121468E-30    0.3973598203142228E+01    0.1306014370158110E-30
    0.1546540136992396E+01    0.8002905657818412E-31    0.2504941971167291E+01
    0.1212121212121468E-30    0.2931570169315601E+01    0.3996885550953686E-30
    0.6973799521244319E+00    0.3481309067248780E-32    0.2504941971167291E+01
    0.1212121212121468E-30    0.3070319952453756E+01    0.2100037182684138E-30
    0.8903742148356899E+00    0.7712488796163963E-31    0.2504941971167291E+01
    0.1212121212121468E-30    0.2056562238187738E+01    0.4294668085386305E-30
    0.2183041995146011E+01    0.3782461580961159E-31    0.2504941971167291E+01
    0.1212121212121468E-30    0.3960694449828020E+01    0.2259705361697900E-30
    0.3855844872709869E+01    0.1784932175608800E-30    0.2504941971167291E+01
    0.1212121212121468E-30    0.2933250588118631E+01    0.3558534735527912E-30
    0.3152611367438027E+01    0.1115283363388046E-30    0.2504941971167291E+01
    0.1212121212121468E-30    0.3637668388416197E+01    0.2959845527131144E-30
    0.3103307385241869E+01    0.5185271477248216E-31    0.2504941971167291E+01
    0.1212121212121468E-30    0.4332607813099732E+01    0.1521436499765848E-30
    0.3266711045517940E+01    0.3601961362728616E-30    0.2504941971167291E+01
    0.1212121212121468E-30    0.1889656617463739E+01    0.6353768785665534E-30
    0.4232537554484796E+01    0.2580489315425687E-30    0.2504941971167291E+01
    0.1212121212121468E-30    0.1918626969802352E+01    0.4090791405801969E-30
    0.1905522374036519E+01    0.6572817491135360E-30    0.2504941971167291E+01
    0.1212121212121468E-30    0.7226290832134608E+00    0.8977306600900122E-30
    0.2879767723645806E+01    0.6107141644541316E-30    0.2504941971167291E+01
    0.1212121212121468E-30    0.9080945892181981E+00    0.8180347387425520E-30
    0.2012711365064516E+01    0.3615868018448300E-30    0.2504941971167291E+01
    0.1212121212121468E-30    0.1767082390977754E+01    0.7060364642880219E-30
    0.2669681472994637E+01    0.1849800474536318E-30    0.2504941971167291E+01
    0.1212121212121468E-30    0.2853394335010793E+01    0.4820509466857063E-30
    0.5000000000000000E+01    0.5232595165182365E-45    0.1250000000000000E+01
    0.5232595165182365E-45    0.5000000000000000E+01    0.5232595165182365E-45
    0.5000000000000000E+01    0.5232595165182365E-45    0.1244025132618614E-17
[...]
POINT_DATA 213
SCALARS rho double 1
LOOKUP_TABLE default
   0.1345796541955250E+01
  -0.1178356579189156E-30
   0.9579407281529523E+00
   0.1906803402335863E-31
   0.9475820049921896E+00
  -0.8999522380664760E-31
   0.9441088111920500E+00
   0.2076563297984219E-31
   0.8439755282595737E+00
  -0.1779249494872692E-31
   0.7737477134498322E+00
   0.2332018529246467E-30
   0.7627930321904799E+00
   0.8434044016125792E-31
   0.7653518583815669E+00
   0.3105432236907383E-31
   0.8319806151076913E+00
  -0.1045818679622384E-30
   0.9370815133171448E+00
   0.2912736097456427E-31
   0.9356544360949617E+00
  -0.7380810206403894E-31
   0.9614102521333336E+00
  -0.6423561634067588E-32
   0.1446900453290106E+01
  -0.2085973730047981E-30
   0.1493664636205631E+01
  -0.7352850783142480E-30
   0.1644906482783348E+01
  -0.3639374407259263E-30
   0.1426459954753584E+01
  -0.5468145197610059E-30
   0.1010194699141296E+01
  -0.4520059513626213E-31
   0.9525885834823113E+00
  -0.2705757305887069E-31
   0.9453353411604055E+00
   0.1301554838217308E-31
   0.9570918932179503E+00
  -0.1583087243265895E-31
   0.9405035750285072E+00
   0.1440799831325256E-31
   0.1036252927763759E+01
  -0.2062538603779651E-30
   0.9262768841093275E+00
  -0.3534502852484620E-31
   0.9335712930007128E+00
  -0.7564557220921849E-31
   0.9553314535611779E+00
  -0.3837747092679444E-31
   0.9539182387580396E+00
  -0.4327091199950668E-31
   0.9363520587137227E+00
  -0.1505799357678279E-31
   0.9580442153217650E+00
  -0.3244887789498467E-31
   0.9388813241732216E+00
  -0.3691116468836030E-32
   0.9315311126790486E+00
  -0.3147485713748340E-31
   0.9462273562463275E+00
   0.1083814566265716E-31
   0.8866204073514705E+00
   0.5543372277808377E-31
   0.9438701599951121E+00
   0.1094943986424661E-30
   0.9642820110466347E+00
  -0.3194858307214835E-31
   0.1007360358997773E+01
  -0.2367600324679338E-32
   0.1006143493855528E+01
   0.3840512372333709E-34
   0.1004563413661104E+01
  -0.1918263773224128E-32
   0.1005766407060972E+01
  -0.6454558543362035E-32
   0.1004613851470167E+01
  -0.8787773720021484E-32
   0.1005277036937162E+01
  -0.7536132850034441E-32
   0.1003007859627087E+01
  -0.1300660324721751E-32
   0.1008120567380949E+01
  -0.5971417720815251E-32
   0.1023734380236625E+01
  -0.2821395381704928E-33
   0.1063100446297824E+01
   0.2188886890019919E-32
   0.1019331503552655E+01
   0.1796514450643721E-32
   0.1001833246167204E+01
  -0.2993885777443658E-32
   0.9660892757613426E+00
  -0.5044531392973750E-31
   0.1005401002571083E+01
  -0.5189015695306016E-32
   0.1000803383233819E+01
  -0.9828314472045025E-33
   0.1008792585247536E+01
  -0.4293222883324482E-32
   0.1007887266734525E+01
   0.6928591915685393E-33
   0.1002506563258492E+01
  -0.5280987288235492E-32
   0.9976233337236512E+00
  -0.3307079398133862E-32
   0.1000595482942259E+01
  -0.3051125460382818E-32
   0.1001869213895721E+01
  -0.4503020106510727E-32
   0.9829482960406027E+00
  -0.1230911483411693E-31
   0.9842200031877788E+00
  -0.8934348641388033E-32
   0.9842401660268776E+00
  -0.4817340926850685E-31
   0.9804107123106497E+00
  -0.3693771826650055E-31
   0.9907751788408000E+00
  -0.1339333989132571E-31
   0.9935612421912733E+00
  -0.2846447943027683E-32
   0.1004738742766339E+01
  -0.1870124692435728E-32
   0.1004753231742820E+01
  -0.1855981563764307E-32
   0.1004862586161271E+01
  -0.1382445007271120E-32
   0.1004644006943855E+01
  -0.1310111485967320E-32
   0.1009703733694220E+01
  -0.6755234208684816E-33
   0.1004822799600369E+01
  -0.3674276729175768E-32
   0.9562084347516944E+00
  -0.2852176357060333E-31
   0.9260273409498302E+00
  -0.3505811678489729E-31
   0.1007887757046081E+01
  -0.1622148657141925E-32
   0.1004444075856726E+01
  -0.1732010263506894E-32
   0.9153029534469945E+00
  -0.3847840136529396E-31
   0.9098198173876206E+00
  -0.1727520938616772E-31
   0.8763404469614287E+00
  -0.1487524745549293E-31
   0.9758130017036624E+00
  -0.1088440216650285E-31
   0.9988241238871586E+00
  -0.1503376711480995E-32
   0.1006007607622819E+01
  -0.1942284307067746E-32
   0.1010869705440993E+01
   0.2087445294473203E-34
   0.1010284058730082E+01
  -0.3295765020534866E-33
   0.1008961397584427E+01
  -0.1718198624660595E-32
   0.1005854785022152E+01
  -0.1655096511439597E-32
   0.9901460467558256E+00
  -0.6808026437007673E-32
   0.1003820693307141E+01
  -0.2858931700916473E-32
   0.9846744718873169E+00
  -0.7588970028219943E-33
   0.1002807071815475E+01
  -0.1577987501091934E-32
   0.1003886848832472E+01
  -0.8296630302202250E-33
   0.1003222595995383E+01
  -0.1116312448147469E-32
   0.1003439397899916E+01
  -0.1919919246622331E-32
   0.1003752735108532E+01
  -0.2584689016568164E-32
   0.1005307961340003E+01
  -0.5647055781132503E-32
   0.1003281720201618E+01
  -0.6410149950152955E-32
   0.1004431172080898E+01
  -0.4200476338335603E-32
   0.1005174248104605E+01
  -0.4790437793710311E-32
   0.1004083061418846E+01
  -0.4239156025591821E-32
   0.1004543416058449E+01
  -0.5708742536665917E-32
   0.1003228509472117E+01
  -0.3435318092838780E-32
   0.1004823608660680E+01
  -0.3854919026556509E-32
   0.1005925429749974E+01
  -0.4105345504252230E-32
   0.1004662977337447E+01
  -0.6082266143956002E-32
   0.1003931064981877E+01
  -0.5300904491337386E-32
   0.1003152768300492E+01
  -0.2829169618753388E-32
   0.1004443721948113E+01
  -0.6426954170119741E-32
   0.1004241336221038E+01
  -0.6120190565226893E-32
   0.1003545643958249E+01
  -0.4312174045836894E-32
   0.1005319467729391E+01
  -0.7918477500475920E-32
   0.1004827951127341E+01
  -0.7826236362893892E-32
   0.1004768233296065E+01
  -0.7228193102346140E-32
   0.1004576524889482E+01
  -0.6443850723296711E-32
   0.1065020380739387E+01
  -0.6521929768725633E-32
   0.1028630322052878E+01
   0.2301178494751889E-32
   0.1009571069424683E+01
  -0.4330837572921684E-32
   0.1006516429360244E+01
  -0.4627079633891116E-32
   0.1163424316243365E+01
  -0.4581653120751594E-31
   0.1086000544225118E+01
  -0.3640233062783200E-32
   0.1007846150904345E+01
  -0.4064432402358391E-32
   0.1007321620367921E+01
  -0.4028536331981423E-32
   0.1006722086391925E+01
  -0.4009726180181425E-32
   0.1013029946001575E+01
  -0.3673993946464239E-32
   0.1019233659953333E+01
   0.3101580525498508E-32
   0.1234841106488306E+01
  -0.1141822748876710E-30
   0.1032998181355615E+01
   0.4123927847050371E-32
   0.1046487654990354E+01
   0.9689800507194132E-32
   0.1201217705881998E+01
  -0.2360120396215847E-31
   0.1014468370722280E+01
  -0.3696393663186016E-32
   0.1031904701189205E+01
   0.3535354352224529E-32
   0.1028504512726753E+01
   0.2838587866821108E-32
   0.1014872091815251E+01
  -0.8635919870113344E-33
   0.1028859491371890E+01
  -0.2447166032593095E-33
   0.1002322902450428E+01
  -0.3675111652617754E-32
   0.9623149085269657E+00
  -0.4325789071900598E-31
   0.1006831224025986E+01
  -0.4053058550326840E-32
   0.1001562983230341E+01
  -0.6700194819740064E-32
   0.1010600101822464E+01
  -0.1730997835265144E-32
   0.1012254760671569E+01
  -0.4999082757206650E-32
   0.1001078337218145E+01
  -0.4622310316900461E-32
   0.9974436027248855E+00
  -0.5768466240784711E-32
   0.9979280819070857E+00
  -0.4282012160937146E-32
   0.1001172483427494E+01
  -0.4490031387154577E-32
   0.9839319815444303E+00
  -0.2059681050549750E-31
   0.9809353673223266E+00
  -0.1376050482567891E-31
   0.9654087284411109E+00
  -0.4401439420835053E-31
   0.9689208145690309E+00
  -0.4767771585191136E-31
   0.9914000281100384E+00
  -0.2037462062676523E-31
   0.9913568261124849E+00
  -0.6885641245513949E-32
   0.9924637652657207E+00
  -0.6045117886793394E-32
   0.1001957570006017E+01
  -0.3733296905957603E-32
   0.9994921407981140E+00
  -0.3982254051849577E-32
   0.9940739530943022E+00
  -0.6469461987476167E-32
   0.1006945246030199E+01
  -0.3327177224439325E-34
   0.1022310804610220E+01
   0.4256587385649616E-32
   0.1000795606579200E+01
  -0.2153958868147867E-31
   0.1008915594032717E+01
  -0.3751845886455549E-32
   0.1004961750854335E+01
  -0.4470860042394908E-32
   0.1009082872238348E+01
  -0.3381802418980709E-32
   0.9968099313090990E+00
  -0.6463121527378129E-32
   0.1005574952241591E+01
  -0.2407678409436012E-32
   0.1003563485371091E+01
  -0.5114742005930363E-32
   0.9950236700829292E+00
  -0.3861867108846513E-32
   0.9828740347447221E+00
  -0.9074191954083905E-32
   0.9940411253214919E+00
  -0.5506657229004375E-32
   0.9970457199536952E+00
  -0.3928785688089595E-32
   0.9919328790532727E+00
  -0.5980387843670628E-32
   0.1001254175928861E+01
  -0.4096615449284687E-32
   0.1003190718912496E+01
  -0.4596484735695174E-32
   0.1002144646964662E+01
  -0.4016502410205598E-32
   0.9935975658025068E+00
  -0.3712387657136310E-32
   0.9936971320137385E+00
  -0.4032101976781676E-32
   0.1005130781904234E+01
  -0.5020228815327584E-32
   0.1019848416163782E+01
  -0.7922487714885886E-32
   0.1005414692800528E+01
  -0.1080254598112691E-31
   0.9817212395510211E+00
  -0.1758196020295049E-31
   0.1005166103209352E+01
  -0.4928119000958979E-32
   0.1012378267703739E+01
  -0.2242304770698335E-32
   0.9874660690790863E+00
  -0.2490843936121301E-31
   0.9550247411699810E+00
  -0.1134573629732855E-32
   0.9860950655519255E+00
  -0.2013050805560741E-31
   0.9867483789587457E+00
  -0.1274568142357231E-31
   0.9926536626760457E+00
  -0.4826369319282972E-31
   0.9932330058398348E+00
  -0.2354061568005782E-31
   0.9955419726242639E+00
  -0.5825409299034954E-31
   0.1037373484403393E+01
  -0.1612865428321933E-31
   0.1032653472586865E+01
  -0.8168370417030330E-32
   0.1001303267514249E+01
  -0.3826821769012406E-32
   0.1001999064858851E+01
  -0.4881150060394882E-32
   0.9898551609990277E+00
  -0.3353091353868517E-32
   0.9908225826756285E+00
  -0.8822412393301811E-32
   0.9647795814624812E+00
  -0.1719262932039187E-31
   0.9922284440075826E+00
  -0.4730222479201167E-32
   0.1005684138677599E+01
  -0.1830246631214886E-32
   0.1001678085001205E+01
  -0.2135115661847450E-32
   0.9910851408080629E+00
  -0.7184210534345287E-32
   0.9742316235526334E+00
  -0.1689145258110445E-31
   0.9425596416372271E+00
  -0.3128555454047131E-31
   0.9822244848971696E+00
  -0.2473898424062712E-31
   0.9791867197261770E+00
  -0.1219733692913879E-31
   0.9714211759908473E+00
  -0.1529411139153616E-31
   0.9721146265435724E+00
  -0.3511254419679817E-31
   0.9554881065440717E+00
  -0.1160293823583057E-31
   0.9504058571561365E+00
  -0.3054346320087703E-31
   0.9547192800287218E+00
  -0.4233235835314813E-31
   0.1002935144467496E+01
  -0.3319447939410090E-32
   0.1002577868881129E+01
  -0.4755574904933908E-32
   0.1000384867499915E+01
  -0.3509145954202867E-32
   0.1001016494141554E+01
  -0.2617212207711924E-32
   0.9618573874850940E+00
  -0.3452805752001488E-31
   0.9513112008951309E+00
  -0.6615344439195499E-31
   0.9605334968881094E+00
  -0.3221220388942198E-31
   0.1000956917617493E+01
  -0.4328593636234540E-32
   0.1000529654089634E+01
  -0.3839268553619736E-32
   0.1000897143290921E+01
  -0.2350923020254137E-32
   0.9809782987887240E+00
  -0.1765142442917477E-31
   0.9804973867448856E+00
  -0.2093235790082494E-31
   0.9641751453277853E+00
  -0.2940010175734332E-31
SCALARS u double 1
LOOKUP_TABLE default
   0.0000000000000000E+00
   0.0000000000000000E+00
   0.0000000000000000E+00
   0.0000000000000000E+00
   0.0000000000000000E+00
   0.0000000000000000E+00
   0.0000000000000000E+00
   0.0000000000000000E+00
   0.0000000000000000E+00
   0.0000000000000000E+00
   0.0000000000000000E+00
   0.0000000000000000E+00
   0.0000000000000000E+00
   0.0000000000000000E+00
   0.0000000000000000E+00
   0.0000000000000000E+00
   0.0000000000000000E+00
   0.0000000000000000E+00
   0.0000000000000000E+00
   0.0000000000000000E+00
   0.0000000000000000E+00
   0.0000000000000000E+00
   0.0000000000000000E+00
   0.0000000000000000E+00
   0.0000000000000000E+00
   0.0000000000000000E+00
   0.0000000000000000E+00
   0.0000000000000000E+00
   0.0000000000000000E+00
   0.0000000000000000E+00
   0.0000000000000000E+00
   0.0000000000000000E+00
   0.0000000000000000E+00
   0.0000000000000000E+00
   0.0000000000000000E+00
   0.0000000000000000E+00
   0.0000000000000000E+00
   0.0000000000000000E+00
   0.0000000000000000E+00
   0.0000000000000000E+00
   0.0000000000000000E+00
   0.0000000000000000E+00
   0.0000000000000000E+00
   0.0000000000000000E+00
   0.0000000000000000E+00
   0.0000000000000000E+00
   0.0000000000000000E+00
   0.0000000000000000E+00
   0.0000000000000000E+00
   0.0000000000000000E+00
   0.0000000000000000E+00
   0.0000000000000000E+00
   0.0000000000000000E+00
   0.0000000000000000E+00
   0.0000000000000000E+00
   0.0000000000000000E+00
   0.0000000000000000E+00
   0.0000000000000000E+00
   0.0000000000000000E+00
   0.0000000000000000E+00
   0.0000000000000000E+00
   0.0000000000000000E+00
   0.0000000000000000E+00
   0.0000000000000000E+00
   0.0000000000000000E+00
   0.0000000000000000E+00
   0.4952166213318969E+00
  -0.2674195318306321E-31
   0.5334120188084038E+00
  -0.6062016063151760E-32
   0.5184094617983794E+00
  -0.3315649993609529E-32
   0.4933250739329220E+00
  -0.4797771900013953E-32
   0.4841849602923158E+00
   0.7172924765690333E-33
   0.4837349854709110E+00
   0.9037063066239291E-32
   0.4864491159242422E+00
   0.1253394176886296E-31
   0.4963270717560117E+00
   0.4652637612355170E-32
   0.4897274495528172E+00
   0.8556543178792729E-32
   0.4721228305122555E+00
   0.7466157422920156E-33
   0.4457498759903497E+00
  -0.3912393332668753E-32
   0.4838077321690765E+00
   0.5450378001358466E-31
   0.5088582085305303E+00
  -0.2896007485295838E-32
   0.4418324939528878E+00
   0.8810709544500836E-31
   0.4944157055253318E+00
   0.6872947450024479E-32
   0.5227028668406505E+00
  -0.4313189807248327E-32
   0.4962293641671920E+00
   0.3060849647903226E-32
   0.5224859099733891E+00
  -0.9459391612646492E-32
   0.5031273745529682E+00
   0.2850431155014933E-32
   0.5637899889534552E+00
  -0.2522564758709780E-32
   0.5250832439536814E+00
  -0.4126997894017917E-32
   0.4979646703261666E+00
   0.4112893483306753E-33
   0.5718289280564697E+00
   0.1755395948054467E-31
   0.5685713692589478E+00
   0.2175863005310093E-32
   0.3743950787312384E+00
   0.9436868933504175E-31
   0.4011464516565535E+00
   0.6144029923885684E-31
   0.5588031865264360E+00
   0.3195489392987173E-31
   0.5562225245484576E+00
  -0.6824150628430038E-33
   0.4946213198835261E+00
  -0.5605298339267509E-32
   0.4954710598743701E+00
  -0.6526892947534491E-32
   0.4938204701795919E+00
  -0.8574445929490191E-32
   0.4919413368896508E+00
  -0.8272419786424924E-32
   0.5164427605563614E+00
  -0.2133795889571160E-33
   0.5361042042206584E+00
   0.8748521902411910E-32
   0.4961282306917925E+00
  -0.8143030942097535E-32
   0.4527682902221093E+00
  -0.3888985230821913E-31
   0.5124492603777916E+00
  -0.1650550566368276E-32
   0.5107351574911722E+00
  -0.3070226909270923E-32
   0.4793106398158037E+00
  -0.1599323179471480E-31
   0.4944001753800720E+00
  -0.3943714838889166E-31
   0.4612388105543735E+00
  -0.8423483102089738E-31
   0.5255628491096375E+00
  -0.2441086185805954E-31
   0.5301258185677551E+00
  -0.1189466421179174E-32
   0.5123394417115228E+00
  -0.4417887716965680E-32
   0.5330691500746130E+00
   0.3256056655403356E-32
   0.5310183105895622E+00
   0.5579744695689766E-32
   0.5300887534844529E+00
  -0.8362950887708508E-33
   0.5056214465370776E+00
  -0.5099229973206048E-32
   0.5282702044540692E+00
  -0.1189951041885716E-31
   0.5402398029900214E+00
  -0.2015406792707589E-32
   0.5370521071988009E+00
  -0.1372697335130845E-31
   0.5378029527349302E+00
  -0.3230432026123471E-32
   0.4974855925107680E+00
   0.1247304254413811E-32
   0.4981113779290379E+00
   0.1064870188995593E-32
   0.4967791909382927E+00
   0.3224830178520488E-32
   0.4957217172236790E+00
   0.4120832498641321E-32
   0.4878213981245358E+00
   0.9935362152867547E-32
   0.4875638593853957E+00
   0.6444847627092940E-32
   0.4856397315541102E+00
  -0.2927365704501776E-32
   0.4864348876319773E+00
  -0.1602192385656924E-32
   0.4916527478945063E+00
   0.8578756288886845E-32
   0.4891972344867819E+00
   0.1082114782676346E-31
   0.4852673890648114E+00
  -0.5295118510217708E-32
   0.4884794593570946E+00
  -0.3393219356330763E-32
   0.4891680309498330E+00
  -0.3091247595055499E-32
   0.4864606866365893E+00
   0.2818270613461881E-32
   0.4864740103834702E+00
   0.4466963525183548E-32
   0.4945548232771069E+00
   0.7200168931800133E-32
   0.4872414387212700E+00
   0.1094762491845102E-31
   0.4875242970155328E+00
   0.9603308326441012E-32
   0.4930303074915833E+00
   0.9344450204930332E-32
   0.4847382555960343E+00
   0.4499955585483440E-32
   0.4867608344451627E+00
   0.9816433979291599E-32
   0.4860643431656053E+00
   0.1051956844720205E-31
   0.4863533498417857E+00
   0.4860297373274832E-32
   0.4455051342307986E+00
  -0.2299960654122963E-32
   0.4698425098437162E+00
  -0.2145879732743599E-32
   0.4891213508352997E+00
   0.4488728912490213E-32
   0.4880913806260884E+00
   0.1024436316344022E-31
   0.4512222445240159E+00
   0.3150849822495055E-31
   0.4670109694097894E+00
  -0.1338470137680764E-31
   0.4875157445821804E+00
   0.6643968263759354E-32
   0.4867654061559293E+00
   0.8693545410928683E-32
   0.4910252348760075E+00
   0.7663345976353969E-32
   0.4794583333434050E+00
   0.6769181240320714E-32
   0.4667732234620482E+00
  -0.4133352568578480E-32
   0.3795687967401866E+00
   0.3556163849126331E-31
   0.4898600744195088E+00
  -0.3861702827144703E-31
   0.4494664021483690E+00
  -0.1449365660346767E-31
   0.4437390543541076E+00
   0.1396755388034984E-31
   0.4845559058486012E+00
   0.4832015648539610E-32
   0.4634694422078067E+00
  -0.6301553467601529E-32
   0.4668527150570032E+00
  -0.3002122738187703E-31
   0.4747719678289286E+00
   0.2070063719835012E-32
   0.4892771342451941E+00
   0.5002306668920814E-31
   0.5085848720612884E+00
  -0.2511367504085203E-32
   0.4329909324665323E+00
   0.4001217919425193E-31
   0.4926201814031391E+00
   0.5468346862754968E-32
   0.5331487249357407E+00
  -0.3886209230212435E-32
   0.4918699926120149E+00
   0.9685608511470707E-33
   0.5209482690877916E+00
  -0.1214506353468592E-32
   0.5064843981319994E+00
   0.1446554757506311E-32
   0.5670735919474567E+00
   0.1484953358261120E-31
   0.5282726007364348E+00
   0.5847092757578263E-33
   0.5013453992356836E+00
   0.1228287515785024E-33
   0.5802137653576386E+00
   0.3909351235240330E-31
   0.5679473754829938E+00
   0.2331994230862489E-31
   0.3410567605389132E+00
   0.9964023809809508E-31
   0.3795470391676478E+00
  -0.1069791032209229E-31
   0.5738453864723888E+00
   0.5715034682362401E-31
   0.5665498158425760E+00
   0.1236482434214105E-31
   0.5692131140014787E+00
  -0.3077758900966745E-32
   0.5290699674251913E+00
  -0.7893157181285879E-32
   0.5445795176146618E+00
  -0.1221124585741063E-31
   0.5714623692263092E+00
   0.8356409323767803E-32
   0.5384717938102905E+00
  -0.2113757661807676E-31
   0.5475120979013630E+00
   0.2264244078235434E-31
   0.5819359369752036E+00
   0.3399209527044680E-31
   0.4926883569986109E+00
  -0.5532343323024382E-32
   0.5037396798369147E+00
   0.1705520442658487E-32
   0.4963200827739195E+00
  -0.1731247974113205E-32
   0.5558035126882063E+00
   0.5191231474140748E-32
   0.4758202939772996E+00
  -0.3881253478165093E-31
   0.4944304243544826E+00
   0.5460448881110472E-32
   0.5489959620423900E+00
  -0.5686598022320725E-32
   0.5871724092633626E+00
   0.2224547195059481E-31
   0.5824855244253135E+00
   0.3136657391439098E-32
   0.5458107304485783E+00
  -0.3399984222805404E-32
   0.5778161231137124E+00
   0.4214180532490866E-32
   0.5101211472333100E+00
  -0.2737491434115060E-32
   0.5023828087722252E+00
  -0.7158124058252325E-34
   0.5027638591320652E+00
  -0.2006735926365525E-32
   0.5661936102602109E+00
   0.3998695958257686E-32
   0.5559508672532257E+00
  -0.8190710866940059E-33
   0.4944630117153918E+00
   0.3108610129368034E-32
   0.5502632940223495E+00
  -0.1587661288624237E-31
   0.5510511248728002E+00