title="tecplot geometry and solution file"
variables = x y z rho u v w p mach temperature
zone t="boundary 1 bc-1", solutiontime= 0.6000000E+02, strandid=1001, i=32, j=46, f=feblock
 -0.547468544169E-02 -0.353932692495E-18 -0.567606031243E-02 -0.353932692495E-18 -0.353932692495E-18 -0.353932692495E-18 -0.525159244851E-02
 -0.425776897977E-02 -0.353932692495E-18 -0.353932692495E-18 -0.353932692495E-18 -0.353932692495E-18 -0.353932692495E-18 -0.353932692495E-18
 -0.353932692495E-18 -0.353932692495E-18 -0.338395986572E-02 -0.353932692495E-18 -0.353932692495E-18 -0.353932692495E-18 -0.353932692495E-18
 -0.353932692495E-18 -0.353932692495E-18 -0.353932692495E-18 -0.353932692495E-18 -0.353932692495E-18 -0.353932692495E-18 -0.353932692495E-18
 -0.353932692495E-18 -0.353932692495E-18 -0.353932692495E-18 -0.353932692495E-18
  0.250494197117E+01  0.250494197117E+01  0.127822156907E+01  0.146289271009E+01  0.157686156160E+01  0.308372018325E+00  0.261948602442E-01
 -0.122573481164E+01 -0.600232012419E+00  0.250494197117E+01  0.477386199275E+00  0.742988685424E+00 -0.739814786992E+00  0.177790177481E+01
  0.155830813274E+01  0.250494197117E+01 -0.249658903664E+01 -0.154800130438E+01 -0.487811078581E+00  0.250494197117E+01  0.627766083140E+00
 -0.345533899378E+00 -0.178862290564E+01 -0.158811787973E+01  0.125000000000E+01 -0.249658903664E+01 -0.144524380962E+01 -0.353932692495E-18
 -0.125000000000E+01 -0.249658903664E+01 -0.249658903664E+01 -0.249658903664E+01
  0.803813859867E-04  0.125000000000E+01  0.822460170215E-04  0.103724302461E+01  0.219251206392E+01  0.922061490191E+00  0.103872438719E-03
  0.341545874230E-04  0.715990576545E+00  0.250000000000E+01  0.202479342020E+01  0.324151231464E+01  0.175434191980E+01  0.310152362409E+01
  0.404200324774E+01  0.375000000000E+01  0.810725962649E-04  0.930412228790E+00  0.299062775774E+01  0.500000000000E+01  0.429310310915E+01
  0.409252726285E+01  0.187029682677E+01  0.284428995242E+01  0.500000000000E+01  0.125000000000E+01  0.394624082883E+01  0.500000000000E+01
  0.500000000000E+01  0.250000000000E+01  0.375000000000E+01  0.500000000000E+01
  0.134610831627E+01  0.106375546125E+01  0.142661175062E+01  0.108602668683E+01  0.103229749831E+01  0.120170182207E+01  0.164672969496E+01
  0.149542069346E+01  0.123512317330E+01  0.102386944101E+01  0.102822218335E+01  0.101305388329E+01  0.103253556520E+01  0.101467213815E+01
  0.100662698728E+01  0.100826833011E+01  0.144847545369E+01  0.116396754637E+01  0.101464052041E+01  0.100424996160E+01  0.100679645631E+01
  0.100725182593E+01  0.104656548092E+01  0.101934079209E+01  0.100423992223E+01  0.106448525694E+01  0.100790708720E+01  0.100288596921E+01
  0.100335006308E+01  0.102844206179E+01  0.100960587344E+01  0.100399794413E+01
  0.000000000000E+00  0.444887282193E+00  0.000000000000E+00  0.468180339968E+00  0.462186785102E+00  0.443238672541E+00  0.000000000000E+00
  0.000000000000E+00  0.379439107506E+00  0.471807259629E+00  0.466360665917E+00  0.479394554341E+00  0.490363734375E+00  0.484571640741E+00
  0.488597463470E+00  0.489900739479E+00  0.000000000000E+00  0.451029462819E+00  0.474778702953E+00  0.495800901384E+00  0.490926840406E+00
  0.486826275004E+00  0.448796916184E+00  0.465790677723E+00  0.496535897905E+00  0.444910677969E+00  0.487666690709E+00  0.497536485684E+00
  0.496381519702E+00  0.470013287519E+00  0.489177491743E+00  0.495515500977E+00
  0.000000000000E+00  0.000000000000E+00  0.000000000000E+00  0.182111741451E-01 -0.276667517257E-02  0.330008534480E-01  0.000000000000E+00
  0.000000000000E+00 -0.635883490480E-02  0.000000000000E+00  0.362941051097E-02 -0.561333437245E-02 -0.432753016454E-02  0.439695192493E-04
 -0.103547487004E-02  0.000000000000E+00  0.000000000000E+00 -0.779174824789E-02  0.391747729729E-03  0.000000000000E+00 -0.202831573794E-02
 -0.137699853603E-02  0.151652499865E-02 -0.162047926823E-02 -0.665396157942E-04  0.000000000000E+00 -0.290738385489E-04 -0.202432668342E-03
  0.805362586184E-03  0.000000000000E+00  0.000000000000E+00  0.000000000000E+00
  0.000000000000E+00  0.453283688315E-01  0.000000000000E+00  0.123658722991E+00  0.245692488157E-01  0.166125821901E+00  0.000000000000E+00
  0.000000000000E+00  0.155960001217E+00  0.352702465153E-02  0.259078649305E-01 -0.647805131836E-02  0.752820989709E-01  0.371569825527E-02
 -0.127529730770E-03  0.471453021930E-03  0.000000000000E+00  0.141096928717E+00 -0.806995808914E-02  0.236433646490E-02 -0.280388784578E-03
 -0.438302901692E-02  0.256769941750E-01 -0.189363841134E-02  0.307401557310E-02  0.838612076674E-01 -0.122860356564E-02  0.268491026201E-02
  0.264424849344E-02  0.283393305967E-02 -0.846589259338E-03  0.345685058386E-02
  0.961496613931E+00  0.782491126485E+00  0.101899898032E+01  0.808635919192E+00  0.746113331734E+00  0.879959780953E+00  0.117622540495E+01
  0.106814927565E+01  0.916484223183E+00  0.737375270839E+00  0.743650981300E+00  0.725792793935E+00  0.757479366998E+00  0.729144504196E+00
  0.720777570513E+00  0.722747151232E+00  0.103461779632E+01  0.858092897603E+00  0.728072575474E+00  0.718602764802E+00  0.721012357561E+00
  0.721154301247E+00  0.759934141409E+00  0.732618494783E+00  0.718521956538E+00  0.790948760522E+00  0.722118117531E+00  0.717197480026E+00
  0.717641997057E+00  0.741773499270E+00  0.724071788708E+00  0.718406370618E+00
  0.000000000000E+00  0.440666214086E+00  0.000000000000E+00  0.474617251443E+00  0.460123126348E+00  0.468636774975E+00  0.000000000000E+00
  0.000000000000E+00  0.402549872250E+00  0.469884091889E+00  0.464193478187E+00  0.478749614932E+00  0.489549465324E+00  0.483128669049E+00
  0.488002259910E+00  0.489034104322E+00  0.000000000000E+00  0.465240564359E+00  0.473760502820E+00  0.495364297274E+00  0.490293371220E+00
  0.486277598049E+00  0.445854520601E+00  0.464358879565E+00  0.496127933516E+00  0.443900347039E+00  0.486930056474E+00  0.497248722535E+00
  0.496055921455E+00  0.467744048732E+00  0.488189258161E+00  0.495091099971E+00
  0.999990300362E+00  0.102983027301E+01  0.999990762612E+00  0.104241479570E+01  0.101187755093E+01  0.102516586953E+01  0.999991420552E+00
  0.999992171067E+00  0.103882587599E+01  0.100825880510E+01  0.101253541373E+01  0.100301664923E+01  0.102705528947E+01  0.100604152563E+01
  0.100244540576E+01  0.100354834274E+01  0.999992724186E+00  0.103209927149E+01  0.100459382920E+01  0.100178631734E+01  0.100260315207E+01
  0.100234717451E+01  0.101657069468E+01  0.100620508927E+01  0.100168367826E+01  0.104024762908E+01  0.100303428499E+01  0.100118707696E+01
  0.100134422955E+01  0.100976315299E+01  0.100405567247E+01  0.100176392267E+01
        12        19        11        11
        11         5        12        12
        10        14         5         5
        19        13        11        11
        19        24        13        13
        30        23        24        24
        19        12        22        22
        28        22        21        21
        11        13         6         6
         7         6         9         9
        15        12        14        14
        18        13        23        23
        15        25        21        21
        27        19        22        22
        18         8         9         9
        27        31        24        24
         4        11         6         6
         5        14        12        12
         4         2         5         5
        21        12        15        15
        14        16        15        15
        24        19        27        27
        22        29        27        27
        23        26        18        18
        17         8        18        18
         5        11         4         4
         6         3         4         4
        26        23        30        30
         5         2        10        10
        16        14        10        10
         3         6         7         7
        21        25        28        28
        29        22        28        28
         6        13         9         9
         2         4         1         1
        31        27        32        32
        25        15        20        20
        24        23        13        13
         8         7         9         9
        13        18         9         9
        31        30        24        24
        12        21        22        22
        29        32        27        27
         3         1         4         4
        26        17        18        18
        16        20        15        15
zone t="boundary 2 bc-2", solutiontime= 0.6000000E+02, strandid=1002, i=33, j=48, f=feblock
  0.500195253374E+01  0.375034811161E+01  0.249861146299E+01  0.288036674177E+01  0.124717526933E+01  0.190856698521E+01  0.326577190273E+01
  0.201394856120E+01 -0.338395986572E-02  0.962374249381E+00  0.500000000000E+01  0.403430190008E+01  0.423029563807E+01  0.500000000000E+01
  0.385439188940E+01  0.500000000000E+01  0.398133433176E+01  0.315200081417E+01  0.266958028869E+01  0.154798029824E+01  0.218327860466E+01
  0.893688440338E+00 -0.353932692495E-18  0.699009761768E+00  0.964460899052E+00  0.310303671659E+01 -0.353932692495E-18 -0.353932692495E-18
  0.125000000000E+01  0.500000000000E+01  0.375000000000E+01  0.250000000000E+01 -0.353932692495E-18
 -0.249658903664E+01 -0.249658903664E+01 -0.249658903664E+01 -0.249658903664E+01 -0.249658903664E+01 -0.249658903664E+01 -0.249658903664E+01
 -0.249658903664E+01 -0.249658903664E+01 -0.249658903664E+01 -0.249658903664E+01 -0.249658903664E+01 -0.249658903664E+01 -0.249658903664E+01
 -0.249658903664E+01 -0.249658903664E+01 -0.249658903664E+01 -0.249658903664E+01 -0.249658903664E+01 -0.249658903664E+01 -0.249658903664E+01
 -0.249658903664E+01 -0.249658903664E+01 -0.249658903664E+01 -0.249658903664E+01 -0.249658903664E+01 -0.249658903664E+01 -0.249658903664E+01
 -0.249658903664E+01 -0.249658903664E+01 -0.249658903664E+01 -0.249658903664E+01 -0.249658903664E+01
  0.108225889030E-03  0.145875369682E-03  0.100893326425E-03  0.901663374396E+00  0.110858761917E-03  0.714928318829E+00  0.188140648011E+01
  0.175892165504E+01  0.810725962649E-04  0.957504300331E+00  0.125000000000E+01  0.100596698996E+01  0.191313519089E+01  0.250000000000E+01
  0.292898096716E+01  0.375000000000E+01  0.406883369524E+01  0.363389289944E+01  0.284756860985E+01  0.292582308120E+01  0.395754054931E+01
  0.205027256979E+01  0.125000000000E+01  0.306703272692E+01  0.397155766662E+01  0.433068622168E+01  0.250000000000E+01  0.375000000000E+01
  0.500000000000E+01  0.500000000000E+01  0.500000000000E+01  0.500000000000E+01  0.500000000000E+01
  0.831048947529E+00  0.935354824304E+00  0.934389728833E+00  0.968094443797E+00  0.961616792524E+00  0.964874050960E+00  0.984210079060E+00
  0.991408428649E+00  0.144847545369E+01  0.102898692700E+01  0.956112561744E+00  0.960814783175E+00  0.981522843623E+00  0.100650795559E+01
  0.997935784357E+00  0.100981608805E+01  0.100200366738E+01  0.998069050925E+00  0.991091308308E+00  0.100132489869E+01  0.100093956959E+01
  0.101223133636E+01  0.106448525694E+01  0.101079826184E+01  0.100685807224E+01  0.100119204083E+01  0.102844206179E+01  0.100960587344E+01
  0.100511534475E+01  0.100179357830E+01  0.100266912375E+01  0.100322320970E+01  0.100399794413E+01
  0.000000000000E+00  0.000000000000E+00  0.000000000000E+00  0.378615143965E+00  0.000000000000E+00  0.340330036827E+00  0.582178245457E+00
  0.575334648167E+00  0.000000000000E+00  0.489381112412E+00  0.495137410627E+00  0.430537259147E+00  0.569176925015E+00  0.536367073039E+00
  0.569065099393E+00  0.516259718215E+00  0.508563867710E+00  0.527499055211E+00  0.566854326358E+00  0.532032725615E+00  0.506130936499E+00
  0.520947368828E+00  0.444910677969E+00  0.491385540634E+00  0.492729803656E+00  0.501502412969E+00  0.470013287519E+00  0.489177491743E+00
  0.490417254840E+00  0.491396778279E+00  0.486161130974E+00  0.490250021790E+00  0.495515500977E+00
  0.000000000000E+00  0.000000000000E+00  0.000000000000E+00  0.000000000000E+00  0.000000000000E+00  0.000000000000E+00  0.000000000000E+00
  0.000000000000E+00  0.000000000000E+00  0.000000000000E+00  0.000000000000E+00  0.000000000000E+00  0.000000000000E+00  0.000000000000E+00
  0.000000000000E+00  0.000000000000E+00  0.000000000000E+00  0.000000000000E+00  0.000000000000E+00  0.000000000000E+00  0.000000000000E+00
  0.000000000000E+00  0.000000000000E+00  0.000000000000E+00  0.000000000000E+00  0.000000000000E+00  0.000000000000E+00  0.000000000000E+00
  0.000000000000E+00  0.000000000000E+00  0.000000000000E+00  0.000000000000E+00  0.000000000000E+00
  0.000000000000E+00  0.000000000000E+00  0.000000000000E+00 -0.232905752420E-02  0.000000000000E+00  0.182353599392E-01  0.121236131854E-01
  0.453891497839E-01  0.000000000000E+00  0.867493105983E-01 -0.992592305773E-01 -0.210121301817E-01 -0.304697136042E-01 -0.412644334303E-01
 -0.132004576828E-02  0.269956672902E-02  0.637123400838E-03  0.535256035952E-03  0.151134138228E-01  0.283971490444E-01  0.565020078314E-02
  0.553958399676E-01  0.838612076674E-01  0.110560461541E-01  0.679114914248E-02 -0.740732339226E-03  0.283393305967E-02 -0.846589259338E-03
  0.399773683635E-02  0.605665534649E-02 -0.135623226000E-03  0.119915524531E-02  0.345685058386E-02
  0.593602525815E+00  0.668106373640E+00  0.667416926171E+00  0.684291429131E+00  0.686864424944E+00  0.679258574311E+00  0.695864189069E+00
  0.702291799843E+00  0.103461779632E+01  0.723389828200E+00  0.672789507278E+00  0.675870605558E+00  0.694123989036E+00  0.721038067016E+00
  0.712711428973E+00  0.724812421406E+00  0.716595369987E+00  0.713312884594E+00  0.706427915721E+00  0.717741416818E+00  0.715380857903E+00
  0.730906771594E+00  0.790948760522E+00  0.724365793600E+00  0.721017449133E+00  0.715471812516E+00  0.741773499270E+00  0.724071788708E+00
  0.719322140360E+00  0.715894733714E+00  0.716614384186E+00  0.717376654939E+00  0.718406370618E+00
  0.000000000000E+00  0.000000000000E+00  0.000000000000E+00  0.380610262147E+00  0.000000000000E+00  0.343302163910E+00  0.585285498563E+00
  0.579523873712E+00  0.000000000000E+00  0.500979747325E+00  0.508782813988E+00  0.434361560751E+00  0.572843977208E+00  0.537166654001E+00
  0.569106490034E+00  0.515013352168E+00  0.508252450129E+00  0.527349030432E+00  0.567655252726E+00  0.531857855080E+00  0.506012444338E+00
  0.521051129087E+00  0.443900347039E+00  0.490706184895E+00  0.492149786368E+00  0.501385664802E+00  0.467744048732E+00  0.488189258161E+00
  0.489961991124E+00  0.491321546658E+00  0.486017931590E+00  0.489981935273E+00  0.495091099971E+00
  0.999993488485E+00  0.999993690942E+00  0.999993544242E+00  0.989581137380E+00  0.999993139053E+00  0.985581489199E+00  0.989839349772E+00
  0.991729030506E+00  0.999992724186E+00  0.984216351931E+00  0.985140607787E+00  0.984808793901E+00  0.990067211337E+00  0.100292629404E+01
  0.999859927064E+00  0.100487346357E+01  0.100122739132E+01  0.100057008832E+01  0.997888967160E+00  0.100350843653E+01  0.100059307424E+01
  0.101090476404E+01  0.104024762908E+01  0.100327844767E+01  0.100254887617E+01  0.100046793890E+01  0.100976315299E+01  0.100405567247E+01
  0.100192580062E+01  0.100045822703E+01  0.100058944082E+01  0.100110055988E+01  0.100176392267E+01
        15         7        19        19
         8        20        19        19
        18        19        21        21
         7         4         8         8
         3         6         4         4
        19         7         8         8
        19        18        15        15
        14        13        15        15
         8        22        20        20
        27        24        22        22
        19        20        21        21
        32        26        21        21
        17        18        26        26
        17        16        15        15
        25        29        21        21
        12         7        13        13
        10         8         6         6
        25        20        24        24
         4         6         8         8
        12         2         4         4
        10        23        22        22
        26        31        17        17
        30        16        17        17
         4         7        12        12
        13        11        12        12
        21        20        25        25
        24        28        25        25
        22         8        10        10
         6         5        10        10
        31        26        32        32
         4         2         3         3
         5         6         3         3
        11        13        14        14
        22        23        27        27
        28        24        27        27
        15        13         7         7
         2        12         1         1
        29        25        33        33
        23        10         9         9
        21        26        18        18
        16        14        15        15
        18        17        15        15
        29        32        21        21
        22        24        20        20
        28        33        25        25
        11         1        12        12
        31        30        17        17
         5         9        10        10
zone t="boundary 3 bc-3", solutiontime= 0.6000000E+02, strandid=1003, i=33, j=48, f=feblock
  0.375059096892E+01  0.249769609313E+01  0.500322133174E+01  0.403612218725E+01  0.287976772365E+01  0.124541910518E+01  0.190552237404E+01
  0.500000000000E+01  0.326671104552E+01  0.423253755448E+01  0.201271136506E+01 -0.547468544169E-02  0.958895643487E+00  0.500000000000E+01
  0.266968147299E+01  0.385584487271E+01  0.890374214836E+00  0.154654013699E+01 -0.353932692495E-18  0.500000000000E+01  0.315261136744E+01
  0.218304199515E+01  0.398195307895E+01 -0.353932692495E-18  0.697379952124E+00  0.963757277315E+00  0.125000000000E+01 -0.353932692495E-18
  0.500000000000E+01  0.310330738524E+01  0.250000000000E+01  0.375000000000E+01 -0.353932692495E-18
  0.250494197117E+01  0.250494197117E+01  0.250494197117E+01  0.250494197117E+01  0.250494197117E+01  0.250494197117E+01  0.250494197117E+01
  0.250494197117E+01  0.250494197117E+01  0.250494197117E+01  0.250494197117E+01  0.250494197117E+01  0.250494197117E+01  0.250494197117E+01
  0.250494197117E+01  0.250494197117E+01  0.250494197117E+01  0.250494197117E+01  0.250494197117E+01  0.250494197117E+01  0.250494197117E+01
  0.250494197117E+01  0.250494197117E+01  0.250494197117E+01  0.250494197117E+01  0.250494197117E+01  0.250494197117E+01  0.250494197117E+01
  0.250494197117E+01  0.250494197117E+01  0.250494197117E+01  0.250494197117E+01  0.250494197117E+01
  0.135649900494E-03  0.110129816467E-03  0.966887303890E-04  0.101756752009E+01  0.908094589218E+00  0.103942505801E-03  0.722629083213E+00
  0.125000000000E+01  0.188965661746E+01  0.191862696980E+01  0.176708239098E+01  0.803813859867E-04  0.969652551954E+00  0.250000000000E+01
  0.285339433501E+01  0.293325058812E+01  0.205656223819E+01  0.293157016932E+01  0.125000000000E+01  0.375000000000E+01  0.363766838842E+01
  0.396069444983E+01  0.407056385475E+01  0.250000000000E+01  0.307031995245E+01  0.397359820314E+01  0.500000000000E+01  0.375000000000E+01
  0.500000000000E+01  0.433260781310E+01  0.500000000000E+01  0.500000000000E+01  0.500000000000E+01
  0.942172442273E+00  0.946117217687E+00  0.843607675287E+00  0.964577423607E+00  0.979032723275E+00  0.957203999865E+00  0.983413604834E+00
  0.963701374497E+00  0.982803932631E+00  0.984389972714E+00  0.990475737604E+00  0.134610831627E+01  0.101939408823E+01  0.100835627202E+01
  0.993519346904E+00  0.998019553046E+00  0.100803794846E+01  0.100074573628E+01  0.106375546125E+01  0.100671242969E+01  0.100059276937E+01
  0.100235386205E+01  0.100177791184E+01  0.102386944101E+01  0.100869654930E+01  0.100526332828E+01  0.100520806490E+01  0.100826833011E+01
  0.100195893025E+01  0.100162064187E+01  0.100412011599E+01  0.100321752214E+01  0.100424996160E+01
  0.000000000000E+00  0.000000000000E+00  0.000000000000E+00  0.440185947564E+00  0.400363895633E+00  0.000000000000E+00  0.375219237771E+00
  0.494597367477E+00  0.572920158682E+00  0.569359282840E+00  0.559938998123E+00  0.000000000000E+00  0.484436995867E+00  0.533624805088E+00
  0.556225901400E+00  0.564433696377E+00  0.522383222193E+00  0.522300357313E+00  0.444887282193E+00  0.518274040431E+00  0.524589464161E+00
  0.503816824452E+00  0.509770333236E+00  0.471807259629E+00  0.496274703069E+00  0.494958709710E+00  0.489143074415E+00  0.489900739479E+00
  0.493071424688E+00  0.499098509736E+00  0.486813265359E+00  0.484775420554E+00  0.495800901384E+00
  0.000000000000E+00  0.000000000000E+00  0.000000000000E+00  0.000000000000E+00  0.000000000000E+00  0.000000000000E+00  0.000000000000E+00
  0.000000000000E+00  0.000000000000E+00  0.000000000000E+00  0.000000000000E+00  0.000000000000E+00  0.000000000000E+00  0.000000000000E+00
  0.000000000000E+00  0.000000000000E+00  0.000000000000E+00  0.000000000000E+00  0.000000000000E+00  0.000000000000E+00  0.000000000000E+00
  0.000000000000E+00  0.000000000000E+00  0.000000000000E+00  0.000000000000E+00  0.000000000000E+00  0.000000000000E+00  0.000000000000E+00
  0.000000000000E+00  0.000000000000E+00  0.000000000000E+00  0.000000000000E+00  0.000000000000E+00
  0.000000000000E+00  0.000000000000E+00  0.000000000000E+00 -0.226594156082E-01  0.112193964901E-01  0.000000000000E+00  0.181895730121E-01
 -0.100732320707E+00  0.385287725148E-02 -0.389417003372E-01  0.339611262079E-01  0.000000000000E+00  0.656427672915E-01 -0.424642274848E-01
  0.838411365901E-02 -0.653604100854E-02  0.487155272537E-01  0.134268443083E-01  0.453283688315E-01  0.711331987344E-03 -0.736123209051E-03
  0.238397918598E-02  0.837565336240E-03  0.352702465153E-02  0.103006265125E-01  0.427268046142E-02  0.337245887519E-02  0.471453021930E-03
  0.570390533590E-02  0.305984004864E-03  0.160645358770E-02  0.567798445855E-03  0.236433646490E-02
  0.672973145685E+00  0.675790859238E+00  0.602570663758E+00  0.676155665286E+00  0.691393387884E+00  0.683710191363E+00  0.689988520069E+00
  0.677395950834E+00  0.695267863897E+00  0.696328683612E+00  0.703514407097E+00  0.961496613931E+00  0.719946046507E+00  0.722885124521E+00
  0.709495720998E+00  0.713707851633E+00  0.726005214526E+00  0.716614514103E+00  0.782491126485E+00  0.722258495268E+00  0.716132750851E+00
  0.716553864267E+00  0.716542446634E+00  0.737375270839E+00  0.722640584708E+00  0.719421881460E+00  0.719547980101E+00  0.722747151232E+00
  0.716025294323E+00  0.715847810821E+00  0.718137414054E+00  0.717062208232E+00  0.718602764802E+00
  0.000000000000E+00  0.000000000000E+00  0.000000000000E+00  0.444930326825E+00  0.402807304899E+00  0.000000000000E+00  0.379033816211E+00
  0.508818739680E+00  0.575701380309E+00  0.573472074571E+00  0.562547829753E+00  0.000000000000E+00  0.491637802823E+00  0.534336813572E+00
  0.556352181557E+00  0.564140551413E+00  0.522485305904E+00  0.521817734723E+00  0.440666214086E+00  0.517132977388E+00  0.524068294194E+00
  0.503616120411E+00  0.509419881626E+00  0.469884091889E+00  0.495645014415E+00  0.494503343521E+00  0.488630212207E+00  0.489034104322E+00
  0.492987209134E+00  0.498957573891E+00  0.486507800289E+00  0.484614059022E+00  0.495364297274E+00
  0.999989345567E+00  0.999989414891E+00  0.999989632591E+00  0.981380973920E+00  0.988680684543E+00  0.999989832933E+00  0.982276351830E+00
  0.984074897333E+00  0.990406099466E+00  0.990319064678E+00  0.994391010848E+00  0.999990300362E+00  0.988748587761E+00  0.100365238201E+01
  0.999773192633E+00  0.100117376382E+01  0.100830261588E+01  0.100251270964E+01  0.102983027301E+01  0.100441979611E+01  0.100199190109E+01
  0.100081961865E+01  0.100137906160E+01  0.100825880510E+01  0.100297440226E+01  0.100191721484E+01  0.100214792073E+01  0.100354834274E+01
  0.100047555023E+01  0.100056537701E+01  0.100126704332E+01  0.100066742194E+01  0.100178631734E+01
        15         9        16        16
        15        18        11        11
        22        15        21        21
        11         5         9         9
         5         7         2         2
        11         9        15        15
        16        21        15        15
        16        10        14        14
        18        17        11        11
        17        25        24        24
        22        18        15        15
        22        30        31        31
        30        21        23        23
        16        20        23        23
        22        27        26        26
        10         9         4         4
         7        11        13        13
        25        18        26        26
        11         7         5         5
         5         1         4         4
        17        19        13        13
        23        32        30        30
        23        20        29        29
         4         9         5         5
         4         8        10        10
        26        18        22        22
        26        28        25        25
        13        11        17        17
        13         6         7         7
        31        30        32        32
         2         1         5         5
         2         7         6         6
        14        10         8         8
        24        19        17        17
        24        25        28        28
         9        10        16        16
         3         4         1         1
        33        26        27        27
        12        13        19        19
        21        30        22        22
        16        14        20        20
        16        23        21        21
        22        31        27        27
        18        25        17        17
        26        33        28        28
         4         3         8         8
        23        29        32        32
        13        12         6         6
zone t="boundary 4 bc-4", solutiontime= 0.6000000E+02, strandid=1004, i=32, j=46, f=feblock
  0.125000000000E+01  0.219251206392E+01  0.103724302461E+01  0.500000000000E+01  0.250000000000E+01  0.375000000000E+01  0.404200324774E+01
  0.500000000000E+01 -0.353932692495E-18  0.310152362409E+01  0.202479342020E+01  0.324151231464E+01  0.922061490191E+00 -0.353932692495E-18
  0.299062775774E+01  0.394624082883E+01  0.500000000000E+01  0.409252726285E+01  0.500000000000E+01  0.429310310915E+01  0.175434191980E+01
  0.284428995242E+01 -0.353932692495E-18 -0.353932692495E-18  0.715990576545E+00  0.930412228790E+00  0.125000000000E+01  0.187029682677E+01
  0.500000000000E+01  0.375000000000E+01  0.250000000000E+01 -0.353932692495E-18
  0.250494197117E+01  0.157686156160E+01  0.146289271009E+01  0.250494197117E+01  0.250494197117E+01  0.250494197117E+01  0.155830813274E+01
  0.125000000000E+01  0.250494197117E+01  0.177790177481E+01  0.477386199275E+00  0.742988685424E+00  0.308372018325E+00  0.125000000000E+01
 -0.487811078581E+00 -0.144524380962E+01 -0.125000000000E+01 -0.345533899378E+00 -0.353932692495E-18  0.627766083140E+00 -0.739814786992E+00
 -0.158811787973E+01 -0.353932692495E-18 -0.125000000000E+01 -0.600232012419E+00 -0.154800130438E+01 -0.249658903664E+01 -0.178862290564E+01
 -0.249658903664E+01 -0.249658903664E+01 -0.249658903664E+01 -0.249658903664E+01
  0.500000000000E+01  0.500000000000E+01  0.500000000000E+01  0.500000000000E+01  0.500000000000E+01  0.500000000000E+01  0.500000000000E+01
  0.500000000000E+01  0.500000000000E+01  0.500000000000E+01  0.500000000000E+01  0.500000000000E+01  0.500000000000E+01  0.500000000000E+01
  0.500000000000E+01  0.500000000000E+01  0.500000000000E+01  0.500000000000E+01  0.500000000000E+01  0.500000000000E+01  0.500000000000E+01
  0.500000000000E+01  0.500000000000E+01  0.500000000000E+01  0.500000000000E+01  0.500000000000E+01  0.500000000000E+01  0.500000000000E+01
  0.500000000000E+01  0.500000000000E+01  0.500000000000E+01  0.500000000000E+01
  0.100520806490E+01  0.100431924305E+01  0.100430499119E+01  0.100195893025E+01  0.100412011599E+01  0.100321752214E+01  0.100258950811E+01
  0.100200889442E+01  0.100424996160E+01  0.100371856069E+01  0.100446256305E+01  0.100347200061E+01  0.100365301814E+01  0.100423992223E+01
  0.100362939620E+01  0.100164315708E+01  0.100227308753E+01  0.100227913647E+01  0.100213224080E+01  0.100254678209E+01  0.100442989922E+01
  0.100338024037E+01  0.100288596921E+01  0.100335006308E+01  0.100323313730E+01  0.100406904038E+01  0.100511534475E+01  0.100432403941E+01
  0.100179357830E+01  0.100266912375E+01  0.100322320970E+01  0.100399794413E+01
  0.489143074415E+00  0.489273551239E+00  0.491032966798E+00  0.493071424688E+00  0.486813265359E+00  0.484775420554E+00  0.485406756518E+00
  0.494264082575E+00  0.495800901384E+00  0.486819175906E+00  0.488146793114E+00  0.487231239373E+00  0.494435302614E+00  0.496535897905E+00
  0.487825239660E+00  0.483167751390E+00  0.492561907155E+00  0.487246880758E+00  0.494865195955E+00  0.488002427532E+00  0.490072116445E+00
  0.488216384595E+00  0.497536485684E+00  0.496381519702E+00  0.495257681714E+00  0.493195598963E+00  0.490417254840E+00  0.490359927903E+00
  0.491396778279E+00  0.486161130974E+00  0.490250021790E+00  0.495515500977E+00
  0.000000000000E+00 -0.578651447049E-04 -0.127352059489E-02  0.000000000000E+00  0.000000000000E+00  0.000000000000E+00  0.474018058505E-03
  0.850808803800E-03  0.000000000000E+00  0.314094611653E-03 -0.890190394154E-03 -0.751271728906E-03 -0.173054660468E-02 -0.665396157942E-04
 -0.105319668024E-02 -0.998843973945E-03 -0.129446226161E-02 -0.207760558133E-02 -0.126376824620E-02 -0.997053102642E-03 -0.597641979544E-03
 -0.743089951642E-03 -0.202432668342E-03  0.805362586184E-03  0.601392496773E-04  0.162347641565E-02  0.000000000000E+00  0.803299904903E-03
  0.000000000000E+00  0.000000000000E+00  0.000000000000E+00  0.000000000000E+00