title="tecplot geometry and solution file"
variables = x y z rho u v w p mach temperature
zone t="boundary 1 bc-1", solutiontime= 0.5000000E+02, strandid=1001, i=32, j=46, f=feblock
 -0.547468544169E-02 -0.237114977668E-18 -0.567606031243E-02 -0.237114977668E-18 -0.237114977668E-18 -0.237114977668E-18 -0.525159244851E-02
 -0.425776897977E-02 -0.237114977668E-18 -0.237114977668E-18 -0.237114977668E-18 -0.237114977668E-18 -0.237114977668E-18 -0.237114977668E-18
 -0.237114977668E-18 -0.237114977668E-18 -0.338395986572E-02 -0.237114977668E-18 -0.237114977668E-18 -0.237114977668E-18 -0.237114977668E-18
 -0.237114977668E-18 -0.237114977668E-18 -0.237114977668E-18 -0.237114977668E-18 -0.237114977668E-18 -0.237114977668E-18 -0.237114977668E-18
 -0.237114977668E-18 -0.237114977668E-18 -0.237114977668E-18 -0.237114977668E-18
  0.250494197117E+01  0.250494197117E+01  0.127822156907E+01  0.146289271009E+01  0.157686156160E+01  0.308372018325E+00  0.261948602442E-01
 -0.122573481164E+01 -0.600232012419E+00  0.250494197117E+01  0.477386199275E+00  0.742988685424E+00 -0.739814786992E+00  0.177790177481E+01
  0.155830813274E+01  0.250494197117E+01 -0.249658903664E+01 -0.154800130438E+01 -0.487811078581E+00  0.250494197117E+01  0.627766083140E+00
 -0.345533899378E+00 -0.178862290564E+01 -0.158811787973E+01  0.125000000000E+01 -0.249658903664E+01 -0.144524380962E+01 -0.237114977668E-18
 -0.125000000000E+01 -0.249658903664E+01 -0.249658903664E+01 -0.249658903664E+01
  0.803813859867E-04  0.125000000000E+01  0.822460170215E-04  0.103724302461E+01  0.219251206392E+01  0.922061490191E+00  0.103872438719E-03
  0.341545874230E-04  0.715990576545E+00  0.250000000000E+01  0.202479342020E+01  0.324151231464E+01  0.175434191980E+01  0.310152362409E+01
  0.404200324774E+01  0.375000000000E+01  0.810725962649E-04  0.930412228790E+00  0.299062775774E+01  0.500000000000E+01  0.429310310915E+01
  0.409252726285E+01  0.187029682677E+01  0.284428995242E+01  0.500000000000E+01  0.125000000000E+01  0.394624082883E+01  0.500000000000E+01
  0.500000000000E+01  0.250000000000E+01  0.375000000000E+01  0.500000000000E+01
  0.134610831650E+01  0.106375546128E+01  0.142661175076E+01  0.108602668667E+01  0.103229749844E+01  0.120170182222E+01  0.164672969511E+01
  0.149542069353E+01  0.123512317338E+01  0.102386944112E+01  0.102822218353E+01  0.101305388343E+01  0.103253556537E+01  0.101467213824E+01
  0.100662698732E+01  0.100826833019E+01  0.144847545396E+01  0.116396754621E+01  0.101464052050E+01  0.100424996153E+01  0.100679645629E+01
  0.100725182589E+01  0.104656548091E+01  0.101934079210E+01  0.100423992229E+01  0.106448525733E+01  0.100790708713E+01  0.100288596915E+01
  0.100335006293E+01  0.102844206178E+01  0.100960587348E+01  0.100399794414E+01
  0.000000000000E+00  0.444887282191E+00  0.000000000000E+00  0.468180340115E+00  0.462186784910E+00  0.443238672319E+00  0.000000000000E+00
  0.000000000000E+00  0.379439107416E+00  0.471807259500E+00  0.466360665852E+00  0.479394554257E+00  0.490363734144E+00  0.484571640648E+00
  0.488597463333E+00  0.489900739578E+00  0.000000000000E+00  0.451029463251E+00  0.474778702945E+00  0.495800900898E+00  0.490926840098E+00
  0.486826274851E+00  0.448796916188E+00  0.465790677885E+00  0.496535897793E+00  0.444910677131E+00  0.487666690451E+00  0.497536485569E+00
  0.496381519629E+00  0.470013287568E+00  0.489177491695E+00  0.495515500919E+00
  0.000000000000E+00  0.000000000000E+00  0.000000000000E+00  0.182111742278E-01 -0.276667516211E-02  0.330008534234E-01  0.000000000000E+00
  0.000000000000E+00 -0.635883495024E-02  0.000000000000E+00  0.362941056536E-02 -0.561333432865E-02 -0.432753020631E-02  0.439695373359E-04
 -0.103547494239E-02  0.000000000000E+00  0.000000000000E+00 -0.779174813623E-02  0.391747727199E-03  0.000000000000E+00 -0.202831581742E-02
 -0.137699857907E-02  0.151652498722E-02 -0.162047937979E-02 -0.665396620013E-04  0.000000000000E+00 -0.290738336862E-04 -0.202432744269E-03
  0.805362546133E-03  0.000000000000E+00  0.000000000000E+00  0.000000000000E+00
  0.000000000000E+00  0.453283688299E-01  0.000000000000E+00  0.123658722985E+00  0.245692486924E-01  0.166125821923E+00  0.000000000000E+00
  0.000000000000E+00  0.155960001223E+00  0.352702461891E-02  0.259078648565E-01 -0.647805130840E-02  0.752820989475E-01  0.371569824567E-02
 -0.127529662231E-03  0.471452963357E-03  0.000000000000E+00  0.141096928725E+00 -0.806995809193E-02  0.236433637827E-02 -0.280388749245E-03
 -0.438302903054E-02  0.256769941521E-01 -0.189363846486E-02  0.307401533925E-02  0.838612072835E-01 -0.122860347317E-02  0.268491021800E-02
  0.264424870440E-02  0.283393296945E-02 -0.846589251226E-03  0.345685067696E-02
  0.961496614098E+00  0.782491126553E+00  0.101899898043E+01  0.808635919234E+00  0.746113331823E+00  0.879959781035E+00  0.117622540506E+01
  0.106814927570E+01  0.916484223263E+00  0.737375270946E+00  0.743650981424E+00  0.725792794041E+00  0.757479367091E+00  0.729144504282E+00
  0.720777570573E+00  0.722747151331E+00  0.103461779651E+01  0.858092897645E+00  0.728072575541E+00  0.718602764704E+00  0.721012357561E+00
  0.721154301248E+00  0.759934141430E+00  0.732618494823E+00  0.718521956554E+00  0.790948760631E+00  0.722118117499E+00  0.717197479949E+00
  0.717641996974E+00  0.741773499272E+00  0.724071788735E+00  0.718406370622E+00
  0.000000000000E+00  0.440666214071E+00  0.000000000000E+00  0.474617251537E+00  0.460123126151E+00  0.468636774783E+00  0.000000000000E+00
  0.000000000000E+00  0.402549872167E+00  0.469884091751E+00  0.464193478121E+00  0.478749614846E+00  0.489549465107E+00  0.483128668949E+00
  0.488002259761E+00  0.489034104407E+00  0.000000000000E+00  0.465240564721E+00  0.473760502810E+00  0.495364296803E+00  0.490293370908E+00
  0.486277597884E+00  0.445854520593E+00  0.464358879716E+00  0.496127933411E+00  0.443900346212E+00  0.486930056210E+00  0.497248722430E+00
  0.496055921375E+00  0.467744048776E+00  0.488189258112E+00  0.495091099915E+00
  0.999990300362E+00  0.102983027307E+01  0.999990762612E+00  0.104241479590E+01  0.101187755093E+01  0.102516586950E+01  0.999991420552E+00
  0.999992171067E+00  0.103882587601E+01  0.100825880514E+01  0.101253541372E+01  0.100301664924E+01  0.102705528942E+01  0.100604152566E+01
  0.100244540581E+01  0.100354834280E+01  0.999992724186E+00  0.103209927168E+01  0.100459382921E+01  0.100178631728E+01  0.100260315208E+01
  0.100234717456E+01  0.101657069472E+01  0.100620508931E+01  0.100168367822E+01  0.104024762885E+01  0.100303428502E+01  0.100118707691E+01
  0.100134422958E+01  0.100976315301E+01  0.100405567247E+01  0.100176392267E+01
        12        19        11        11
        11         5        12        12
        10        14         5         5
        19        13        11        11
        19        24        13        13
        30        23        24        24
        19        12        22        22
        28        22        21        21
        11        13         6         6
         7         6         9         9
        15        12        14        14
        18        13        23        23
        15        25        21        21
        27        19        22        22
        18         8         9         9
        27        31        24        24
         4        11         6         6
         5        14        12        12
         4         2         5         5
        21        12        15        15
        14        16        15        15
        24        19        27        27
        22        29        27        27
        23        26        18        18
        17         8        18        18
         5        11         4         4
         6         3         4         4
        26        23        30        30
         5         2        10        10
        16        14        10        10
         3         6         7         7
        21        25        28        28
        29        22        28        28
         6        13         9         9
         2         4         1         1
        31        27        32        32
        25        15        20        20
        24        23        13        13
         8         7         9         9
        13        18         9         9
        31        30        24        24
        12        21        22        22
        29        32        27        27
         3         1         4         4
        26        17        18        18
        16        20        15        15
zone t="boundary 2 bc-2", solutiontime= 0.5000000E+02, strandid=1002, i=33, j=48, f=feblock
  0.500195253374E+01  0.375034811161E+01  0.249861146299E+01  0.288036674177E+01  0.124717526933E+01  0.190856698521E+01  0.326577190273E+01
  0.201394856120E+01 -0.338395986572E-02  0.962374249381E+00  0.500000000000E+01  0.403430190008E+01  0.423029563807E+01  0.500000000000E+01
  0.385439188940E+01  0.500000000000E+01  0.398133433176E+01  0.315200081417E+01  0.266958028869E+01  0.154798029824E+01  0.218327860466E+01
  0.893688440338E+00 -0.237114977668E-18  0.699009761768E+00  0.964460899052E+00  0.310303671659E+01 -0.237114977668E-18 -0.237114977668E-18
  0.125000000000E+01  0.500000000000E+01  0.375000000000E+01  0.250000000000E+01 -0.237114977668E-18
 -0.249658903664E+01 -0.249658903664E+01 -0.249658903664E+01 -0.249658903664E+01 -0.249658903664E+01 -0.249658903664E+01 -0.249658903664E+01
 -0.249658903664E+01 -0.249658903664E+01 -0.249658903664E+01 -0.249658903664E+01 -0.249658903664E+01 -0.249658903664E+01 -0.249658903664E+01
 -0.249658903664E+01 -0.249658903664E+01 -0.249658903664E+01 -0.249658903664E+01 -0.249658903664E+01 -0.249658903664E+01 -0.249658903664E+01
 -0.249658903664E+01 -0.249658903664E+01 -0.249658903664E+01 -0.249658903664E+01 -0.249658903664E+01 -0.249658903664E+01 -0.249658903664E+01
 -0.249658903664E+01 -0.249658903664E+01 -0.249658903664E+01 -0.249658903664E+01 -0.249658903664E+01
  0.108225889030E-03  0.145875369682E-03  0.100893326425E-03  0.901663374396E+00  0.110858761917E-03  0.714928318829E+00  0.188140648011E+01
  0.175892165504E+01  0.810725962649E-04  0.957504300331E+00  0.125000000000E+01  0.100596698996E+01  0.191313519089E+01  0.250000000000E+01
  0.292898096716E+01  0.375000000000E+01  0.406883369524E+01  0.363389289944E+01  0.284756860985E+01  0.292582308120E+01  0.395754054931E+01
  0.205027256979E+01  0.125000000000E+01  0.306703272692E+01  0.397155766662E+01  0.433068622168E+01  0.250000000000E+01  0.375000000000E+01
  0.500000000000E+01  0.500000000000E+01  0.500000000000E+01  0.500000000000E+01  0.500000000000E+01
  0.831048947750E+00  0.935354824469E+00  0.934389728872E+00  0.968094444141E+00  0.961616792682E+00  0.964874051362E+00  0.984210079220E+00
  0.991408428751E+00  0.144847545396E+01  0.102898692710E+01  0.956112562450E+00  0.960814783846E+00  0.981522843981E+00  0.100650795572E+01
  0.997935784441E+00  0.100981608899E+01  0.100200366783E+01  0.998069050719E+00  0.991091308381E+00  0.100132489875E+01  0.100093956954E+01
  0.101223133644E+01  0.106448525733E+01  0.101079826183E+01  0.100685807224E+01  0.100119204062E+01  0.102844206178E+01  0.100960587348E+01
  0.100511534474E+01  0.100179357823E+01  0.100266912285E+01  0.100322320973E+01  0.100399794414E+01
  0.000000000000E+00  0.000000000000E+00  0.000000000000E+00  0.378615143751E+00  0.000000000000E+00  0.340330036752E+00  0.582178245282E+00
  0.575334647889E+00  0.000000000000E+00  0.489381112295E+00  0.495137409960E+00  0.430537259263E+00  0.569176924909E+00  0.536367073079E+00
  0.569065099550E+00  0.516259718164E+00  0.508563869354E+00  0.527499055989E+00  0.566854326497E+00  0.532032725778E+00  0.506130936992E+00
  0.520947368679E+00  0.444910677131E+00  0.491385540698E+00  0.492729803594E+00  0.501502413765E+00  0.470013287568E+00  0.489177491695E+00
  0.490417254683E+00  0.491396777914E+00  0.486161130160E+00  0.490250021883E+00  0.495515500919E+00
  0.000000000000E+00  0.000000000000E+00  0.000000000000E+00  0.000000000000E+00  0.000000000000E+00  0.000000000000E+00  0.000000000000E+00
  0.000000000000E+00  0.000000000000E+00  0.000000000000E+00  0.000000000000E+00  0.000000000000E+00  0.000000000000E+00  0.000000000000E+00
  0.000000000000E+00  0.000000000000E+00  0.000000000000E+00  0.000000000000E+00  0.000000000000E+00  0.000000000000E+00  0.000000000000E+00
  0.000000000000E+00  0.000000000000E+00  0.000000000000E+00  0.000000000000E+00  0.000000000000E+00  0.000000000000E+00  0.000000000000E+00
  0.000000000000E+00  0.000000000000E+00  0.000000000000E+00  0.000000000000E+00  0.000000000000E+00
  0.000000000000E+00  0.000000000000E+00  0.000000000000E+00 -0.232905747917E-02  0.000000000000E+00  0.182353599648E-01  0.121236132958E-01
  0.453891499096E-01  0.000000000000E+00  0.867493105668E-01 -0.992592304771E-01 -0.210121303039E-01 -0.304697135127E-01 -0.412644332486E-01
 -0.132004504893E-02  0.269956793437E-02  0.637125303767E-03  0.535256591333E-03  0.151134141109E-01  0.283971493639E-01  0.565020096493E-02
  0.553958399691E-01  0.838612072835E-01  0.110560462055E-01  0.679114916208E-02 -0.740731867917E-03  0.283393296945E-02 -0.846589251226E-03
  0.399773664690E-02  0.605665693997E-02 -0.135622872897E-03  0.119915454811E-02  0.345685067696E-02
  0.593602525973E+00  0.668106373758E+00  0.667416926198E+00  0.684291429192E+00  0.686864425058E+00  0.679258574364E+00  0.695864189116E+00
  0.702291799910E+00  0.103461779651E+01  0.723389828290E+00  0.672789507667E+00  0.675870605562E+00  0.694123989104E+00  0.721038067156E+00
  0.712711429084E+00  0.724812422084E+00  0.716595369934E+00  0.713312884383E+00  0.706427915744E+00  0.717741416858E+00  0.715380857863E+00
  0.730906771617E+00  0.790948760631E+00  0.724365793617E+00  0.721017449133E+00  0.715471812323E+00  0.741773499272E+00  0.724071788735E+00
  0.719322140375E+00  0.715894733704E+00  0.716614383598E+00  0.717376654779E+00  0.718406370622E+00
  0.000000000000E+00  0.000000000000E+00  0.000000000000E+00  0.380610261982E+00  0.000000000000E+00  0.343302163894E+00  0.585285498418E+00
  0.579523873446E+00  0.000000000000E+00  0.500979747194E+00  0.508782813350E+00  0.434361561025E+00  0.572843977173E+00  0.537166654013E+00
  0.569106490168E+00  0.515013352122E+00  0.508252451908E+00  0.527349031233E+00  0.567655252884E+00  0.531857855261E+00  0.506012444836E+00
  0.521051128953E+00  0.443900346212E+00  0.490706184952E+00  0.492149786305E+00  0.501385665613E+00  0.467744048776E+00  0.488189258112E+00
  0.489961990957E+00  0.491321546297E+00  0.486017930757E+00  0.489981935426E+00  0.495091099915E+00
  0.999993488485E+00  0.999993690942E+00  0.999993544242E+00  0.989581137117E+00  0.999993139053E+00  0.985581488866E+00  0.989839349679E+00
  0.991729030499E+00  0.999992724186E+00  0.984216351966E+00  0.985140607629E+00  0.984808793220E+00  0.990067211074E+00  0.100292629410E+01
  0.999859927137E+00  0.100487346358E+01  0.100122739079E+01  0.100057008823E+01  0.997888967120E+00  0.100350843653E+01  0.100059307423E+01
  0.101090476399E+01  0.104024762885E+01  0.100327844770E+01  0.100254887617E+01  0.100046793883E+01  0.100976315301E+01  0.100405567247E+01
  0.100192580066E+01  0.100045822709E+01  0.100058944090E+01  0.100110055963E+01  0.100176392267E+01
        15         7        19        19
         8        20        19        19
        18        19        21        21
         7         4         8         8
         3         6         4         4
        19         7         8         8
        19        18        15        15
        14        13        15        15
         8        22        20        20
        27        24        22        22
        19        20        21        21
        32        26        21        21
        17        18        26        26
        17        16        15        15
        25        29        21        21
        12         7        13        13
        10         8         6         6
        25        20        24        24
         4         6         8         8
        12         2         4         4
        10        23        22        22
        26        31        17        17
        30        16        17        17
         4         7        12        12
        13        11        12        12
        21        20        25        25
        24        28        25        25
        22         8        10        10
         6         5        10        10
        31        26        32        32
         4         2         3         3
         5         6         3         3
        11        13        14        14
        22        23        27        27
        28        24        27        27
        15        13         7         7
         2        12         1         1
        29        25        33        33
        23        10         9         9
        21        26        18        18
        16        14        15        15
        18        17        15        15
        29        32        21        21
        22        24        20        20
        28        33        25        25
        11         1        12        12
        31        30        17        17
         5         9        10        10
zone t="boundary 3 bc-3", solutiontime= 0.5000000E+02, strandid=1003, i=33, j=48, f=feblock
  0.375059096892E+01  0.249769609313E+01  0.500322133174E+01  0.403612218725E+01  0.287976772365E+01  0.124541910518E+01  0.190552237404E+01
  0.500000000000E+01  0.326671104552E+01  0.423253755448E+01  0.201271136506E+01 -0.547468544169E-02  0.958895643487E+00  0.500000000000E+01
  0.266968147299E+01  0.385584487271E+01  0.890374214836E+00  0.154654013699E+01 -0.237114977668E-18  0.500000000000E+01  0.315261136744E+01
  0.218304199515E+01  0.398195307895E+01 -0.237114977668E-18  0.697379952124E+00  0.963757277315E+00  0.125000000000E+01 -0.237114977668E-18
  0.500000000000E+01  0.310330738524E+01  0.250000000000E+01  0.375000000000E+01 -0.237114977668E-18
  0.250494197117E+01  0.250494197117E+01  0.250494197117E+01  0.250494197117E+01  0.250494197117E+01  0.250494197117E+01  0.250494197117E+01
  0.250494197117E+01  0.250494197117E+01  0.250494197117E+01  0.250494197117E+01  0.250494197117E+01  0.250494197117E+01  0.250494197117E+01
  0.250494197117E+01  0.250494197117E+01  0.250494197117E+01  0.250494197117E+01  0.250494197117E+01  0.250494197117E+01  0.250494197117E+01
  0.250494197117E+01  0.250494197117E+01  0.250494197117E+01  0.250494197117E+01  0.250494197117E+01  0.250494197117E+01  0.250494197117E+01
  0.250494197117E+01  0.250494197117E+01  0.250494197117E+01  0.250494197117E+01  0.250494197117E+01
  0.135649900494E-03  0.110129816467E-03  0.966887303890E-04  0.101756752009E+01  0.908094589218E+00  0.103942505801E-03  0.722629083213E+00
  0.125000000000E+01  0.188965661746E+01  0.191862696980E+01  0.176708239098E+01  0.803813859867E-04  0.969652551954E+00  0.250000000000E+01
  0.285339433501E+01  0.293325058812E+01  0.205656223819E+01  0.293157016932E+01  0.125000000000E+01  0.375000000000E+01  0.363766838842E+01
  0.396069444983E+01  0.407056385475E+01  0.250000000000E+01  0.307031995245E+01  0.397359820314E+01  0.500000000000E+01  0.375000000000E+01
  0.500000000000E+01  0.433260781310E+01  0.500000000000E+01  0.500000000000E+01  0.500000000000E+01
  0.942172442857E+00  0.946117217798E+00  0.843607677156E+00  0.964577435743E+00  0.979032725795E+00  0.957204000003E+00  0.983413604697E+00
  0.963701383375E+00  0.982803932018E+00  0.984389974054E+00  0.990475737418E+00  0.134610831650E+01  0.101939408841E+01  0.100835627172E+01
  0.993519346976E+00  0.998019553061E+00  0.100803794860E+01  0.100074573643E+01  0.106375546128E+01  0.100671242896E+01  0.100059276981E+01
  0.100235386222E+01  0.100177791155E+01  0.102386944112E+01  0.100869654939E+01  0.100526332832E+01  0.100520806499E+01  0.100826833019E+01
  0.100195893244E+01  0.100162064186E+01  0.100412011563E+01  0.100321752268E+01  0.100424996153E+01
  0.000000000000E+00  0.000000000000E+00  0.000000000000E+00  0.440185946625E+00  0.400363895842E+00  0.000000000000E+00  0.375219237705E+00
  0.494597357575E+00  0.572920158425E+00  0.569359282222E+00  0.559938998080E+00  0.000000000000E+00  0.484436995785E+00  0.533624806116E+00
  0.556225901140E+00  0.564433696840E+00  0.522383222042E+00  0.522300357156E+00  0.444887282191E+00  0.518274039202E+00  0.524589463317E+00
  0.503816824094E+00  0.509770328729E+00  0.471807259500E+00  0.496274703006E+00  0.494958709529E+00  0.489143074963E+00  0.489900739578E+00
  0.493071426248E+00  0.499098507920E+00  0.486813265867E+00  0.484775423942E+00  0.495800900898E+00
  0.000000000000E+00  0.000000000000E+00  0.000000000000E+00  0.000000000000E+00  0.000000000000E+00  0.000000000000E+00  0.000000000000E+00
  0.000000000000E+00  0.000000000000E+00  0.000000000000E+00  0.000000000000E+00  0.000000000000E+00  0.000000000000E+00  0.000000000000E+00
  0.000000000000E+00  0.000000000000E+00  0.000000000000E+00  0.000000000000E+00  0.000000000000E+00  0.000000000000E+00  0.000000000000E+00
  0.000000000000E+00  0.000000000000E+00  0.000000000000E+00  0.000000000000E+00  0.000000000000E+00  0.000000000000E+00  0.000000000000E+00
  0.000000000000E+00  0.000000000000E+00  0.000000000000E+00  0.000000000000E+00  0.000000000000E+00
  0.000000000000E+00  0.000000000000E+00  0.000000000000E+00 -0.226594163830E-01  0.112193961477E-01  0.000000000000E+00  0.181895729866E-01
 -0.100732318141E+00  0.385287734565E-02 -0.389416990617E-01  0.339611261370E-01  0.000000000000E+00  0.656427673161E-01 -0.424642255926E-01
  0.838411356102E-02 -0.653604064148E-02  0.487155272360E-01  0.134268442698E-01  0.453283688299E-01  0.711331420135E-03 -0.736123571793E-03
  0.238397912597E-02  0.837565956771E-03  0.352702461891E-02  0.103006265002E-01  0.427268060400E-02  0.337245864505E-02  0.471452963357E-03
  0.570390332060E-02  0.305984651281E-03  0.160645466237E-02  0.567798362350E-03  0.236433637827E-02
  0.672973146103E+00  0.675790859317E+00  0.602570665093E+00  0.676155665277E+00  0.691393387959E+00  0.683710191461E+00  0.689988520202E+00
  0.677395954484E+00  0.695267864233E+00  0.696328684251E+00  0.703514407285E+00  0.961496614098E+00  0.719946046671E+00  0.722885124453E+00
  0.709495721106E+00  0.713707851752E+00  0.726005214661E+00  0.716614514202E+00  0.782491126553E+00  0.722258494858E+00  0.716132751188E+00
  0.716553864389E+00  0.716542447101E+00  0.737375270946E+00  0.722640584813E+00  0.719421881526E+00  0.719547980069E+00  0.722747151331E+00
  0.716025296050E+00  0.715847811110E+00  0.718137413885E+00  0.717062208344E+00  0.718602764704E+00
  0.000000000000E+00  0.000000000000E+00  0.000000000000E+00  0.444930328721E+00  0.402807305596E+00  0.000000000000E+00  0.379033816080E+00
  0.508818730355E+00  0.575701379733E+00  0.573472073992E+00  0.562547829578E+00  0.000000000000E+00  0.491637802732E+00  0.534336814389E+00
  0.556352181274E+00  0.564140551829E+00  0.522485305742E+00  0.521817734566E+00  0.440666214071E+00  0.517132976117E+00  0.524068293344E+00
  0.503616120052E+00  0.509419876886E+00  0.469884091751E+00  0.495645014339E+00  0.494503343328E+00  0.488630212785E+00  0.489034104407E+00
  0.492987210612E+00  0.498957571973E+00  0.486507800771E+00  0.484614062502E+00  0.495364296803E+00
  0.999989345567E+00  0.999989414891E+00  0.999989632591E+00  0.981380961560E+00  0.988680682106E+00  0.999989832933E+00  0.982276352157E+00
  0.984074893570E+00  0.990406100562E+00  0.990319064238E+00  0.994391011300E+00  0.999990300362E+00  0.988748587810E+00  0.100365238222E+01
  0.999773192713E+00  0.100117376397E+01  0.100830261592E+01  0.100251270964E+01  0.102983027307E+01  0.100441979628E+01  0.100199190111E+01
  0.100081961865E+01  0.100137906254E+01  0.100825880514E+01  0.100297440231E+01  0.100191721489E+01  0.100214792060E+01  0.100354834280E+01
  0.100047555046E+01  0.100056537742E+01  0.100126704344E+01  0.100066742155E+01  0.100178631728E+01
        15         9        16        16
        15        18        11        11
        22        15        21        21
        11         5         9         9
         5         7         2         2
        11         9        15        15
        16        21        15        15
        16        10        14        14
        18        17        11        11
        17        25        24        24
        22        18        15        15
        22        30        31        31
        30        21        23        23
        16        20        23        23
        22        27        26        26
        10         9         4         4
         7        11        13        13
        25        18        26        26
        11         7         5         5
         5         1         4         4
        17        19        13        13
        23        32        30        30
        23        20        29        29
         4         9         5         5
         4         8        10        10
        26        18        22        22
        26        28        25        25
        13        11        17        17
        13         6         7         7
        31        30        32        32
         2         1         5         5
         2         7         6         6
        14        10         8         8
        24        19        17        17
        24        25        28        28
         9        10        16        16
         3         4         1         1
        33        26        27        27
        12        13        19        19
        21        30        22        22
        16        14        20        20
        16        23        21        21
        22        31        27        27
        18        25        17        17
        26        33        28        28
         4         3         8         8
        23        29        32        32
        13        12         6         6
zone t="boundary 4 bc-4", solutiontime= 0.5000000E+02, strandid=1004, i=32, j=46, f=feblock
  0.125000000000E+01  0.219251206392E+01  0.103724302461E+01  0.500000000000E+01  0.250000000000E+01  0.375000000000E+01  0.404200324774E+01
  0.500000000000E+01 -0.237114977668E-18  0.310152362409E+01  0.202479342020E+01  0.324151231464E+01  0.922061490191E+00 -0.237114977668E-18
  0.299062775774E+01  0.394624082883E+01  0.500000000000E+01  0.409252726285E+01  0.500000000000E+01  0.429310310915E+01  0.175434191980E+01
  0.284428995242E+01 -0.237114977668E-18 -0.237114977668E-18  0.715990576545E+00  0.930412228790E+00  0.125000000000E+01  0.187029682677E+01
  0.500000000000E+01  0.375000000000E+01  0.250000000000E+01 -0.237114977668E-18
  0.250494197117E+01  0.157686156160E+01  0.146289271009E+01  0.250494197117E+01  0.250494197117E+01  0.250494197117E+01  0.155830813274E+01
  0.125000000000E+01  0.250494197117E+01  0.177790177481E+01  0.477386199275E+00  0.742988685424E+00  0.308372018325E+00  0.125000000000E+01
 -0.487811078581E+00 -0.144524380962E+01 -0.125000000000E+01 -0.345533899378E+00 -0.237114977668E-18  0.627766083140E+00 -0.739814786992E+00
 -0.158811787973E+01 -0.237114977668E-18 -0.125000000000E+01 -0.600232012419E+00 -0.154800130438E+01 -0.249658903664E+01 -0.178862290564E+01
 -0.249658903664E+01 -0.249658903664E+01 -0.249658903664E+01 -0.249658903664E+01
  0.500000000000E+01  0.500000000000E+01  0.500000000000E+01  0.500000000000E+01  0.500000000000E+01  0.500000000000E+01  0.500000000000E+01
  0.500000000000E+01  0.500000000000E+01  0.500000000000E+01  0.500000000000E+01  0.500000000000E+01  0.500000000000E+01  0.500000000000E+01
  0.500000000000E+01  0.500000000000E+01  0.500000000000E+01  0.500000000000E+01  0.500000000000E+01  0.500000000000E+01  0.500000000000E+01
  0.500000000000E+01  0.500000000000E+01  0.500000000000E+01  0.500000000000E+01  0.500000000000E+01  0.500000000000E+01  0.500000000000E+01
  0.500000000000E+01  0.500000000000E+01  0.500000000000E+01  0.500000000000E+01
  0.100520806499E+01  0.100431924299E+01  0.100430499095E+01  0.100195893244E+01  0.100412011563E+01  0.100321752268E+01  0.100258950989E+01
  0.100200889706E+01  0.100424996153E+01  0.100371856057E+01  0.100446256309E+01  0.100347200056E+01  0.100365301804E+01  0.100423992229E+01
  0.100362939592E+01  0.100164315637E+01  0.100227308750E+01  0.100227913716E+01  0.100213224244E+01  0.100254678332E+01  0.100442989891E+01
  0.100338024007E+01  0.100288596915E+01  0.100335006293E+01  0.100323313740E+01  0.100406904051E+01  0.100511534474E+01  0.100432403931E+01
  0.100179357823E+01  0.100266912285E+01  0.100322320973E+01  0.100399794414E+01
  0.489143074963E+00  0.489273552563E+00  0.491032967376E+00  0.493071426248E+00  0.486813265867E+00  0.484775423942E+00  0.485406762604E+00
  0.494264085701E+00  0.495800900898E+00  0.486819177070E+00  0.488146794313E+00  0.487231242325E+00  0.494435303153E+00  0.496535897793E+00
  0.487825241276E+00  0.483167752263E+00  0.492561907755E+00  0.487246885217E+00  0.494865198639E+00  0.488002434037E+00  0.490072116555E+00
  0.488216384362E+00  0.497536485569E+00  0.496381519629E+00  0.495257681875E+00  0.493195599110E+00  0.490417254683E+00  0.490359927989E+00
  0.491396777914E+00  0.486161130160E+00  0.490250021883E+00  0.495515500919E+00
  0.000000000000E+00 -0.578650144004E-04 -0.127352049170E-02  0.000000000000E+00  0.000000000000E+00  0.000000000000E+00  0.474018018161E-03
  0.850808870853E-03  0.000000000000E+00  0.314095164185E-03 -0.890190214252E-03 -0.751270013554E-03 -0.173054657889E-02 -0.665396620013E-04
 -0.105319483715E-02 -0.998842102851E-03 -0.129446000984E-02 -0.207760178812E-02 -0.126376527894E-02 -0.997050646003E-03 -0.597641277659E-03
 -0.743088238965E-03 -0.202432744269E-03  0.805362546133E-03  0.601393110883E-04  0.162347652699E-02  0.000000000000E+00  0.803300245509E-03
  0.000000000000E+00  0.000000000000E+00  0.000000000000E+00  0.000000000000E+00