# vtk DataFile Version 2.0
FUN3D:global_image_vtk
ASCII
DATASET UNSTRUCTURED_GRID
POINTS 213 double
   -0.5474685441687832E-02    0.5000000000000054E-30    0.2504941971167291E+01
    0.1212121212121167E-30    0.8038138598670530E-04    0.5000000000000000E-30
    0.1245419105183472E+01    0.1000000000000000E-29    0.2504941971167291E+01
    0.1212121212121167E-30    0.1039425058013133E-03    0.1000000000000000E-29
    0.2497696093128780E+01    0.5000000000000000E-30    0.2504941971167291E+01
    0.1212121212121167E-30    0.1101298164665754E-03    0.5000000000000000E-30
    0.3750590968915824E+01    0.1000000000000000E-29    0.2504941971167291E+01
    0.1212121212121167E-30    0.1356499004943612E-03    0.1000000000000000E-29
    0.5003221331742151E+01    0.5000000000000000E-30    0.2504941971167291E+01
    0.1212121212121167E-30    0.9668873038898296E-04    0.5000000000000000E-30
    0.5004676687979097E+01    0.1000000000000000E-29    0.1281291202167040E+01
    0.4999999999999707E-30    0.1638053019384356E-03    0.1000000000000000E-29
    0.5004772673778115E+01    0.4999999999999947E-30    0.2775079906482894E-01
    0.9999999999999787E-30    0.1903478008447590E-03    0.5000000000000000E-30
    0.5003581183341212E+01    0.1000000000000000E-29   -0.1225853508883529E+01
    0.4999999999999790E-30    0.1607765204486578E-03    0.1000000000000000E-29
    0.5001952533742191E+01    0.5000000000000000E-30   -0.2496589036641631E+01
    0.1212121212121181E-30    0.1082258890302557E-03    0.5000000000000000E-30
    0.3750348111606544E+01    0.1000000000000000E-29   -0.2496589036641631E+01
    0.1212121212121181E-30    0.1458753696815807E-03    0.1000000000000000E-29
    0.2498611462994928E+01    0.5000000000000000E-30   -0.2496589036641631E+01
    0.1212121212121181E-30    0.1008933264248224E-03    0.5000000000000000E-30
    0.1247175269333276E+01    0.1000000000000000E-29   -0.2496589036641631E+01
    0.1212121212121181E-30    0.1108587619169654E-03    0.1000000000000000E-29
   -0.3383959865719266E-02    0.5000000000000054E-30   -0.2496589036641631E+01
    0.1212121212121181E-30    0.8107259626494168E-04    0.5000000000000000E-30
   -0.4257768979765597E-02    0.1000000000000000E-29   -0.1225734811642590E+01
    0.4999999999999790E-30    0.3415458742295208E-04    0.1000000000000000E-29
   -0.5251592448509257E-02    0.5000000000000054E-30    0.2619486024420453E-01
    0.9999999999999787E-30    0.1038724387187884E-03    0.5000000000000000E-30
   -0.5676060312426845E-02    0.1000000000000011E-29    0.1278221569065707E+01
    0.4999999999999762E-30    0.8224601702150336E-04    0.1000000000000000E-29
    0.9003209617952581E+00    0.5000000000000054E-30    0.1608979112280158E+01
    0.9999999999999735E-30    0.8704140727672227E-04    0.5000000000000000E-30
    0.3983172210692289E+01    0.1000000000000000E-29   -0.1561211904840279E+01
    0.4999999999999790E-30    0.1757116720370600E-03    0.1000000000000000E-29
    0.4035602039224469E+01    0.5000000000000000E-30    0.1486760030415520E+01
    0.9999999999999680E-30    0.1713312862106631E-03    0.5000000000000000E-30
    0.1036613723302902E+01    0.1000000000000000E-29   -0.1455626429916848E+01
    0.4999999999999790E-30    0.1047189301532914E-03    0.1000000000000000E-29
    0.1094353480630802E+01    0.5000000000000054E-30   -0.2964622010671852E+00
    0.9999999999999680E-30    0.1260590236917269E-03    0.5000000000000000E-30
    0.7298400267480001E+00    0.1000000000000011E-29    0.6874684746719117E+00
    0.4999999999998991E-30    0.1044598640544958E-03    0.1000000000000000E-29
    0.1617018659308944E+01    0.5000000000000054E-30    0.8553208024939412E+00
    0.9999999999980006E-30    0.1529810904974394E-03    0.5000000000000000E-30
    0.2143199662875790E+01    0.1000000000000000E-29   -0.1627128509216730E+01
    0.4999999999999790E-30    0.1606170425226816E-03    0.1000000000000000E-29
    0.4088840445400889E+01    0.5000000000000000E-30   -0.4351047825936264E+00
    0.9999999999999787E-30    0.2719933294109134E-03    0.5000000000000000E-30
    0.2977916511248925E+01    0.1000000000000000E-29   -0.8334991483094456E+00
    0.4999999999980035E-30    0.2245596931861327E-03    0.1000000000000000E-29
    0.3044093241383418E+01    0.5000000000000000E-30   -0.1814361225108581E+01
    0.9999999999999787E-30    0.1617000112420497E-03    0.5000000000000000E-30
    0.3427866614805211E+01    0.1000000000000000E-29    0.3813904839972497E+00
    0.4999999999999762E-30    0.2936955483429093E-03    0.1000000000000000E-29
    0.4313225355351749E+01    0.5000000000000000E-30    0.5489133376342540E+00
    0.9999999999979985E-30    0.2313009573592373E-03    0.5000000000000000E-30
    0.1823032737597358E+01    0.1000000000000000E-29    0.1771265193544254E+01
    0.4999999999999707E-30    0.1836202887151583E-03    0.1000000000000000E-29
    0.2806311152168375E+01    0.5000000000000000E-30    0.1358629373600680E+01
    0.9999999999999680E-30    0.1943492163983818E-03    0.5000000000000000E-30
    0.1891860875936711E+01    0.1000000000000000E-29   -0.8481310365607502E+00
    0.4999999999980035E-30    0.1670645501816170E-03    0.1000000000000000E-29
    0.2268769200166909E+01    0.5000000000000054E-30    0.7723691819196567E-01
    0.9999999999999787E-30    0.2072307783085314E-03    0.5000000000000000E-30
    0.5000000000000000E+01    0.1392965364997137E-45    0.2504941971167291E+01
    0.1212121212121167E-30    0.1250000000000000E+01    0.1392965364997137E-45
    0.5000000000000000E+01    0.1392965364997137E-45    0.2504941971167291E+01
    0.1212121212121167E-30    0.2500000000000000E+01    0.1392965364997137E-45
    0.5000000000000000E+01    0.1392965364997137E-45    0.2504941971167291E+01
    0.1212121212121167E-30    0.3750000000000000E+01    0.1392965364997137E-45
    0.5000000000000000E+01    0.1392965364997137E-45    0.2504941971167291E+01
    0.1212121212121167E-30    0.5000000000000000E+01    0.1392965364997137E-45
    0.3750000000000000E+01    0.1392965364997137E-45    0.2504941971167291E+01
    0.1212121212121167E-30    0.5000000000000000E+01    0.1392965364997137E-45
    0.2500000000000000E+01    0.1392965364997137E-45    0.2504941971167291E+01
    0.1212121212121167E-30    0.5000000000000000E+01    0.1392965364997137E-45
    0.1250000000000000E+01    0.1392965364997137E-45    0.2504941971167291E+01
    0.1212121212121167E-30    0.5000000000000000E+01    0.1392965364997137E-45
   -0.2158836178778537E-18    0.1392965364997137E-45    0.2504941971167291E+01
    0.1212121212121167E-30    0.5000000000000000E+01    0.1392965364997137E-45
   -0.2158836178778537E-18    0.1392965364997137E-45    0.2504941971167291E+01
    0.1212121212121167E-30    0.3750000000000000E+01    0.1392965364997137E-45
   -0.2158836178778537E-18    0.1392965364997137E-45    0.2504941971167291E+01
    0.1212121212121167E-30    0.2500000000000000E+01    0.1392965364997137E-45
   -0.2158836178778537E-18    0.1392965364997137E-45    0.2504941971167291E+01
    0.1212121212121167E-30    0.1250000000000000E+01    0.1392965364997137E-45
    0.9588956434871093E+00    0.4088323204879225E-30    0.2504941971167291E+01
    0.1212121212121167E-30    0.9696525519543872E+00    0.8253355966551252E-30
    0.3981953078951402E+01    0.7369699780761049E-31    0.2504941971167291E+01
    0.1212121212121167E-30    0.4070563854751271E+01    0.1516277355837155E-30
    0.4036122187252336E+01    0.5331184872988892E-30    0.2504941971167291E+01
    0.1212121212121167E-30    0.1017567520094671E+01    0.8139234257757922E-30
    0.9637572773153894E+00   -0.9331067766573948E-32    0.2504941971167291E+01
    0.1212121212121167E-30    0.3973598203142229E+01    0.1306014370157127E-30
    0.1546540136992396E+01    0.8002905657937262E-31    0.2504941971167291E+01
    0.1212121212121167E-30    0.2931570169315601E+01    0.3996885550960893E-30
    0.6973799521244315E+00    0.3481309068545413E-32    0.2504941971167291E+01
    0.1212121212121167E-30    0.3070319952453756E+01    0.2100037182685224E-30
    0.8903742148356883E+00    0.7712488796391069E-31    0.2504941971167291E+01
    0.1212121212121167E-30    0.2056562238187738E+01    0.4294668085391936E-30
    0.2183041995146014E+01    0.3782461580938145E-31    0.2504941971167291E+01
    0.1212121212121167E-30    0.3960694449828019E+01    0.2259705361717886E-30
    0.3855844872709870E+01    0.1784932175605175E-30    0.2504941971167291E+01
    0.1212121212121167E-30    0.2933250588118630E+01    0.3558534735540751E-30
    0.3152611367438030E+01    0.1115283363381367E-30    0.2504941971167291E+01
    0.1212121212121167E-30    0.3637668388416194E+01    0.2959845527170436E-30
    0.3103307385241870E+01    0.5185271477211105E-31    0.2504941971167291E+01
    0.1212121212121167E-30    0.4332607813099731E+01    0.1521436499783984E-30
    0.3266711045517939E+01    0.3601961362743649E-30    0.2504941971167291E+01
    0.1212121212121167E-30    0.1889656617463738E+01    0.6353768785675616E-30
    0.4232537554484796E+01    0.2580489315430207E-30    0.2504941971167291E+01
    0.1212121212121167E-30    0.1918626969802351E+01    0.4090791405811727E-30
    0.1905522374036519E+01    0.6572817491138475E-30    0.2504941971167291E+01
    0.1212121212121167E-30    0.7226290832134608E+00    0.8977306600899588E-30
    0.2879767723645805E+01    0.6107141644546877E-30    0.2504941971167291E+01
    0.1212121212121167E-30    0.9080945892181980E+00    0.8180347387425798E-30
    0.2012711365064515E+01    0.3615868018466591E-30    0.2504941971167291E+01
    0.1212121212121167E-30    0.1767082390977754E+01    0.7060364642884238E-30
    0.2669681472994637E+01    0.1849800474545989E-30    0.2504941971167291E+01
    0.1212121212121167E-30    0.2853394335010791E+01    0.4820509466873608E-30
    0.5000000000000000E+01    0.1392965364997137E-45    0.1250000000000000E+01
    0.1392965364997137E-45    0.5000000000000000E+01    0.1392965364997137E-45
    0.5000000000000000E+01    0.1392965364997137E-45   -0.2158836178778537E-18
[...]
POINT_DATA 213
SCALARS rho double 1
LOOKUP_TABLE default
   0.1346108316263260E+01
  -0.1177608889790146E-30
   0.9572039998600553E+00
   0.2108874295902089E-31
   0.9461172176739958E+00
  -0.8777077100597690E-31
   0.9421724422232396E+00
   0.2463028740746776E-31
   0.8436076751988675E+00
  -0.1732596975542187E-31
   0.7742023688679461E+00
   0.2325429216600823E-30
   0.7627583542973819E+00
   0.8548765174561481E-31
   0.7661562012440228E+00
   0.3222200611769355E-31
   0.8310489475274544E+00
  -0.1016795665032875E-30
   0.9353548242975440E+00
   0.3068730503138516E-31
   0.9343897288268619E+00
  -0.7551866941286969E-31
   0.9616167925151786E+00
  -0.8801524610529423E-32
   0.1448475453679504E+01
  -0.2080910580670161E-30
   0.1495420693456563E+01
  -0.7365293102149380E-30
   0.1646729694953908E+01
  -0.3640616153925411E-30
   0.1426611750618530E+01
  -0.5489176093563415E-30
   0.1009807294814252E+01
  -0.4443517874323922E-31
   0.9511451599258059E+00
  -0.2350095873654019E-31
   0.9438202812351733E+00
   0.1502190680065277E-31
   0.9574649706908135E+00
  -0.1788241073979434E-31
   0.9414971310207744E+00
   0.1314199484837600E-31
   0.1037119050552770E+01
  -0.2075618299961025E-30
   0.9258166083497235E+00
  -0.3401752252256483E-31
   0.9322402496787955E+00
  -0.7674207917362432E-31
   0.9538058253071993E+00
  -0.3489748562309405E-31
   0.9520452717008209E+00
  -0.4171330874015915E-31
   0.9351035433474101E+00
  -0.1567348335015157E-31
   0.9565496449253622E+00
  -0.2962286668528375E-31
   0.9378638716756782E+00
  -0.1486939953624492E-32
   0.9303460519868466E+00
  -0.2936548176879883E-31
   0.9446467733333783E+00
   0.1257888806666356E-31
   0.8862352680534259E+00
   0.5292302000442347E-31
   0.9424046351261663E+00
   0.1081191112616166E-30
   0.9637013741731578E+00
  -0.3482002037669478E-31
   0.1008356272044945E+01
  -0.1320219048036944E-32
   0.1006712429709877E+01
   0.1297318090043992E-32
   0.1001958930205315E+01
  -0.1468366600859475E-32
   0.1003217522115538E+01
  -0.4892409030928016E-32
   0.1004120115973770E+01
  -0.6469113528903597E-32
   0.1005208064902656E+01
  -0.5564399479250974E-32
   0.1004249961603995E+01
  -0.1802699867572738E-32
   0.1008268330106260E+01
  -0.4612036135424972E-32
   0.1023869441005894E+01
   0.4401466680257911E-33
   0.1063755461250255E+01
   0.3369728210542310E-32
   0.1019394088224980E+01
   0.2549105377422796E-32
   0.1001777911845261E+01
  -0.2389864649640967E-32
   0.9645774231494944E+00
  -0.5007782486357058E-31
   0.1005263328272078E+01
  -0.4528993170932790E-32
   0.1000745736275087E+01
  -0.6736924912133311E-33
   0.1008696549289946E+01
  -0.3737980223255071E-32
   0.1008037948454513E+01
   0.1511580692982203E-32
   0.1002353862047818E+01
  -0.4724772455152064E-32
   0.9980195530495580E+00
  -0.2360602298609299E-32
   0.1000592769357704E+01
  -0.3289514875429681E-32
   0.1001620641860689E+01
  -0.4554855496162910E-32
   0.9828039326494123E+00
  -0.1135559702930329E-31
   0.9843899726746210E+00
  -0.8360029187163922E-32
   0.9834136048390913E+00
  -0.4733372431110128E-31
   0.9790327232203990E+00
  -0.3586502085005577E-31
   0.9904757376070009E+00
  -0.1230853165105520E-31
   0.9935193468940666E+00
  -0.2614894719213317E-32
   0.1002008894346864E+01
  -0.1286898880216362E-32
   0.1002132240744496E+01
  -0.1236464679680843E-32
   0.1002273087521134E+01
  -0.7100226276876188E-33
   0.1001793578297203E+01
  -0.5490855196810883E-33
   0.1009816088027810E+01
   0.1298053686451169E-32
   0.1006507955582138E+01
  -0.3875899868459472E-32
   0.9561125617151265E+00
  -0.3365993390186821E-31
   0.9252807406676106E+00
  -0.3956040021365861E-31
   0.1007053966729335E+01
   0.7701779220600538E-33
   0.1004490981234773E+01
   0.8722824491175608E-34
   0.9145128351553006E+00
  -0.4174570681255698E-31
   0.9091570307030392E+00
  -0.2042561487706680E-31
   0.8752463079641776E+00
  -0.1988129894321916E-31
   0.9767979597407769E+00
  -0.1298079775436385E-31
   0.1000541360241149E+01
  -0.2765355855813999E-32
   0.1005826549297304E+01
   0.3753687438703180E-33
   0.1012896701668311E+01
   0.1001362992420526E-32
   0.1011680292165990E+01
   0.7244242598791609E-33
   0.1010415973639725E+01
   0.1112843136438779E-33
   0.1005456587395487E+01
   0.3299927147701483E-33
   0.9909167515212804E+00
  -0.7162257115362228E-32
   0.1005149610920272E+01
  -0.1645884578077091E-32
   0.9860895085449178E+00
  -0.2084164778810331E-32
   0.1005593206447744E+01
  -0.1807825355444984E-32
   0.1004239922232603E+01
  -0.2052520607571413E-32
   0.1002885969213360E+01
  -0.1680771350569934E-32
   0.1003350063078459E+01
  -0.1850814597423228E-32
   0.1003997944127812E+01
  -0.2025733607412431E-32
   0.1005115344746929E+01
  -0.5167190537815891E-32
   0.1003223209693073E+01
  -0.5847642495633331E-32
   0.1002669123761886E+01
  -0.4083145039890928E-32
   0.1002589508054974E+01
  -0.4180590231536966E-32
   0.1004069040374428E+01
  -0.3733398051193096E-32
   0.1004304991187206E+01
  -0.4571198946784899E-32
   0.1001643157085843E+01
  -0.3316477201913589E-32
   0.1002279136440334E+01
  -0.3841457970713308E-32
   0.1002546782020500E+01
  -0.3711249651457104E-32
   0.1003472000595587E+01
  -0.5345476869600698E-32
   0.1003380240374746E+01
  -0.5306870075949782E-32
   0.1003233137295518E+01
  -0.2892386693734835E-32
   0.1004429899220272E+01
  -0.5442574677259705E-32
   0.1004324039413551E+01
  -0.5630343723298074E-32
   0.1003653018135798E+01
  -0.3701265965568984E-32
   0.1003718560687947E+01
  -0.5517762605706589E-32
   0.1004319243041978E+01
  -0.5867641045926625E-32
   0.1004462563047395E+01
  -0.6191704704242367E-32
   0.1003629396212333E+01
  -0.5732793437662896E-32
   0.1064485256925095E+01
  -0.6168873491620790E-32
   0.1028442061791070E+01
   0.2142382263905396E-32
   0.1009605873439085E+01
  -0.3222380007443847E-32
   0.1006626987278259E+01
  -0.3720443513577312E-32
   0.1163967546375650E+01
  -0.4691744704954344E-31
   0.1086026686831201E+01
  -0.2900713331685518E-32
   0.1007907087193442E+01
  -0.3542416082677219E-32
   0.1007251825931669E+01
  -0.3822307408021250E-32
   0.1006796456312481E+01
  -0.3647498289241667E-32
   0.1013053883282701E+01
  -0.2669903666483036E-32
   0.1019340792084219E+01
   0.3038530441189267E-32
   0.1235123173296762E+01
  -0.1137411829029039E-30
   0.1032535565187862E+01
   0.5374152023093351E-32
   0.1046565480922848E+01
   0.8897350387096774E-32
   0.1201701822065579E+01
  -0.2041248025687304E-31
   0.1014672138144501E+01
  -0.2586216300530757E-32
   0.1032297498308540E+01
   0.4148531559627219E-32
   0.1028222183338733E+01
   0.3282075286151757E-32
   0.1014640520410227E+01
  -0.1077374343533803E-32
   0.1028986926999341E+01
  -0.6003582651091970E-33
   0.1002003667365966E+01
  -0.2310346683929107E-32
   0.9608147831457476E+00
  -0.4501963319580270E-31
   0.1006858072237082E+01
  -0.3902831515774058E-32
   0.1001324898680459E+01
  -0.6150470393929862E-32
   0.1010798261832901E+01
  -0.1808667002577819E-32
   0.1012231336352149E+01
  -0.4506438058578815E-32
   0.1000939569587515E+01
  -0.4606092870197818E-32
   0.9979357843525262E+00
  -0.4919484581859275E-32
   0.9980690509294069E+00
  -0.4007942345097105E-32
   0.1001192040826551E+01
  -0.4325793841784576E-32
   0.9842100790524297E+00
  -0.2063385649771728E-31
   0.9815228436094000E+00
  -0.1482315510286499E-31
   0.9648740509475461E+00
  -0.4544621316431016E-31
   0.9680944437803169E+00
  -0.4916616531818602E-31
   0.9914084286456301E+00
  -0.1964540593671105E-31
   0.9910913083038576E+00
  -0.6075834772339004E-32
   0.9925587124656182E+00
  -0.5687696656538926E-32
   0.1001727549514231E+01
  -0.3481299507671461E-32
   0.9993245747401771E+00
  -0.3737737065465651E-32
   0.9941434371395466E+00
  -0.5613620727465404E-32
   0.1006982475141322E+01
   0.4508119333762735E-33
   0.1022613019618600E+01
   0.5287019105753776E-32
   0.1001120639139637E+01
  -0.2122940711003284E-31
   0.1008783935583390E+01
  -0.3685080454004885E-32
   0.1004774772921340E+01
  -0.4072051134073965E-32
   0.1009030410930872E+01
  -0.2869757155109971E-32
   0.9967211493815412E+00
  -0.5974089307709913E-32
   0.1005570715442230E+01
  -0.2353997791024424E-32
   0.1003324760114173E+01
  -0.5026552628030084E-32
   0.9949845984908272E+00
  -0.3836814975575320E-32
   0.9833501663083033E+00
  -0.8756224906527398E-32
   0.9944494689142619E+00
  -0.5033881905070234E-32
   0.9973474193053189E+00
  -0.3733713113604719E-32
   0.9932503760541443E+00
  -0.5536561435044006E-32
   0.1001311884906835E+01
  -0.4117497181788470E-32
   0.1003000708376206E+01
  -0.4469764518416198E-32
   0.1002188291593111E+01
  -0.4060306524229354E-32
   0.9947120026401653E+00
  -0.3102673713551414E-32
   0.9937832198057065E+00
  -0.3583557996761232E-32
   0.1004861704668893E+01
  -0.4838299752633054E-32
   0.1020101282070692E+01
  -0.6998556989649829E-32
   0.1005337229999309E+01
  -0.1030188644092842E-31
   0.9817045977666798E+00
  -0.1686943164000734E-31
   0.1004974596061813E+01
  -0.4655042187696200E-32
   0.1012374662656395E+01
  -0.2246194924189375E-32
   0.9873720328709662E+00
  -0.2688580032306768E-31
   0.9551284413725023E+00
  -0.1184411974504518E-32
   0.9865253756902113E+00
  -0.1926656606755516E-31
   0.9865916534802134E+00
  -0.1248923016841543E-31
   0.9920067167869592E+00
  -0.4788190534510347E-31
   0.9934435620808112E+00
  -0.2361984992856428E-31
   0.9960682553857636E+00
  -0.5866037925490629E-31
   0.1037400105928138E+01
  -0.1613050100974979E-31
   0.1033161102224296E+01
  -0.7995237093187605E-32
   0.1001442942589849E+01
  -0.2749511700100544E-32
   0.1001928635177598E+01
  -0.4777727549365799E-32
   0.9912313107685383E+00
  -0.3043420266943797E-32
   0.9911145322898066E+00
  -0.8045922543878446E-32
   0.9649433996998174E+00
  -0.1821598902231527E-31
   0.9933790316917634E+00
  -0.4469841902453473E-32
   0.1006090796374753E+01
  -0.4566684157943283E-33
   0.1001963018637760E+01
  -0.1176964971897395E-32
   0.9908628976459770E+00
  -0.6794531715907820E-32
   0.9742169955168840E+00
  -0.1689458633150729E-31
   0.9420656172337390E+00
  -0.3347032169511562E-31
   0.9821543954947062E+00
  -0.2440251757095189E-31
   0.9794783302235192E+00
  -0.1144631609971119E-31
   0.9704368616041272E+00
  -0.1548709859931540E-31
   0.9720887189878812E+00
  -0.3528336199754598E-31
   0.9557898414997539E+00
  -0.1215020782905141E-31
   0.9498086706711323E+00
  -0.3122557753818981E-31
   0.9529904616790311E+00
  -0.4051517420241419E-31
   0.1002635788495221E+01
  -0.3554145201865507E-32
   0.1002475631460716E+01
  -0.4746864120776233E-32
   0.1000513073316605E+01
  -0.3039991074588425E-32
   0.1001674838577961E+01
  -0.1517752672929050E-32
   0.9610035232182406E+00
  -0.3574722347266243E-31
   0.9492443247445823E+00
  -0.6631866395227799E-31
   0.9586632960130743E+00
  -0.3154410829325012E-31
   0.1001121360678566E+01
  -0.4384674914534981E-32
   0.1000501199843905E+01
  -0.3466182279986695E-32
   0.1001159801540511E+01
  -0.2027848401321720E-32
   0.9807420384794835E+00
  -0.1683753322217975E-31
   0.9805568735449626E+00
  -0.2124757813443936E-31
   0.9629217552733442E+00
  -0.2912348115189968E-31
SCALARS u double 1
LOOKUP_TABLE default
   0.0000000000000000E+00
   0.0000000000000000E+00
   0.0000000000000000E+00
   0.0000000000000000E+00
   0.0000000000000000E+00
   0.0000000000000000E+00
   0.0000000000000000E+00
   0.0000000000000000E+00
   0.0000000000000000E+00
   0.0000000000000000E+00
   0.0000000000000000E+00
   0.0000000000000000E+00
   0.0000000000000000E+00
   0.0000000000000000E+00
   0.0000000000000000E+00
   0.0000000000000000E+00
   0.0000000000000000E+00
   0.0000000000000000E+00
   0.0000000000000000E+00
   0.0000000000000000E+00
   0.0000000000000000E+00
   0.0000000000000000E+00
   0.0000000000000000E+00
   0.0000000000000000E+00
   0.0000000000000000E+00
   0.0000000000000000E+00
   0.0000000000000000E+00
   0.0000000000000000E+00
   0.0000000000000000E+00
   0.0000000000000000E+00
   0.0000000000000000E+00
   0.0000000000000000E+00
   0.0000000000000000E+00
   0.0000000000000000E+00
   0.0000000000000000E+00
   0.0000000000000000E+00
   0.0000000000000000E+00
   0.0000000000000000E+00
   0.0000000000000000E+00
   0.0000000000000000E+00
   0.0000000000000000E+00
   0.0000000000000000E+00
   0.0000000000000000E+00
   0.0000000000000000E+00
   0.0000000000000000E+00
   0.0000000000000000E+00
   0.0000000000000000E+00
   0.0000000000000000E+00
   0.0000000000000000E+00
   0.0000000000000000E+00
   0.0000000000000000E+00
   0.0000000000000000E+00
   0.0000000000000000E+00
   0.0000000000000000E+00
   0.0000000000000000E+00
   0.0000000000000000E+00
   0.0000000000000000E+00
   0.0000000000000000E+00
   0.0000000000000000E+00
   0.0000000000000000E+00
   0.0000000000000000E+00
   0.0000000000000000E+00
   0.0000000000000000E+00
   0.0000000000000000E+00
   0.0000000000000000E+00
   0.0000000000000000E+00
   0.4945973678192742E+00
  -0.2504829235236605E-31
   0.5336248050513254E+00
  -0.9236851730383061E-32
   0.5182740404555592E+00
  -0.3131483449350194E-32
   0.4930714246731551E+00
  -0.7165179883783853E-34
   0.4847754205069164E+00
   0.8344630987373884E-32
   0.4868132653368411E+00
   0.1285698876173367E-31
   0.4891430744281519E+00
   0.1140475662999253E-31
   0.4958009013999650E+00
   0.1942068248358609E-32
   0.4899007394802737E+00
   0.6904916737014158E-32
   0.4718072596334905E+00
   0.2271036804340173E-33
   0.4448872821972509E+00
  -0.4956103621083222E-32
   0.4844369958684856E+00
   0.5356577074398520E-31
   0.5097703333340555E+00
  -0.6426189916519286E-33
   0.4401859475311194E+00
   0.9160613317285907E-31
   0.4949587097188877E+00
   0.5818838759584120E-32
   0.5223003573209621E+00
  -0.5215053814426619E-32
   0.4962747030736160E+00
   0.2729569511865686E-32
   0.5223832221991105E+00
  -0.1083581751455180E-31
   0.5038168244758503E+00
   0.3053100861141324E-32
   0.5644336963923426E+00
  -0.3176430942060503E-32
   0.5245894641994381E+00
  -0.3418081111513903E-32
   0.4990985097736289E+00
   0.3634257714341648E-32
   0.5729201586902890E+00
   0.1632419739397470E-31
   0.5693592828693915E+00
  -0.6388170619785160E-33
   0.3752192377624554E+00
   0.9373934444451404E-31
   0.4003638955707722E+00
   0.6331490707683927E-31
   0.5599389981226924E+00
   0.3108858722874128E-31
   0.5562259014215846E+00
  -0.1472839320417195E-32
   0.4942640825316937E+00
  -0.1222787773598569E-32
   0.4948651958955093E+00
  -0.2349173390050579E-32
   0.4925619071368221E+00
  -0.3794230703728382E-32
   0.4913967782807059E+00
  -0.2316317205288512E-32
   0.5162597182184154E+00
  -0.6606830990585101E-33
   0.5363670730383673E+00
   0.5455266760892112E-32
   0.4951374106576989E+00
  -0.4948570919554165E-32
   0.4520512890331417E+00
  -0.3405761287647517E-31
   0.5129007652647539E+00
  -0.1329507138172515E-32
   0.5117699763445788E+00
  -0.2587057284928077E-32
   0.4786317418659534E+00
  -0.1180539022964883E-31
   0.4931122297850043E+00
  -0.3456660405443200E-31
   0.4600270411490596E+00
  -0.7818836365202983E-31
   0.5242595707294474E+00
  -0.2535997455446502E-31
   0.5299947205782718E+00
  -0.3418880542285348E-32
   0.5129700677652687E+00
  -0.4540292825707892E-32
   0.5328928660743235E+00
   0.1345097616603762E-32
   0.5309782654292693E+00
   0.3326784814359003E-32
   0.5309767611424629E+00
  -0.2767224483380213E-32
   0.5063651340503658E+00
  -0.4150532168742055E-32
   0.5279536185345525E+00
  -0.1519666599417357E-31
   0.5409238855073437E+00
  -0.4821857932922686E-32
   0.5363719066788003E+00
  -0.1521202303111339E-31
   0.5374201319951161E+00
  -0.6352637726441857E-32
   0.4965358979110440E+00
   0.7786763258699379E-33
   0.4975364856908054E+00
   0.6560542187279272E-33
   0.4963815197052234E+00
   0.2131812754991304E-32
   0.4955155009819208E+00
   0.1995631031739177E-32
   0.4904172548498091E+00
   0.9747507025440020E-32
   0.4902500217795182E+00
   0.1083628038099664E-31
   0.4861611309726972E+00
   0.5924017141596102E-32
   0.4854067564178047E+00
   0.5624927657966707E-32
   0.4931955989645609E+00
   0.7482049804299331E-32
   0.4910329667939723E+00
   0.9829446132834066E-32
   0.4831677513609224E+00
   0.2548206511809449E-32
   0.4872468806484699E+00
   0.3596783264605996E-32
   0.4880024273792196E+00
   0.3472703706118434E-32
   0.4872312392880568E+00
   0.8902589680198127E-32
   0.4882163845925022E+00
   0.1067925974248152E-31
   0.4952576817170778E+00
   0.6042559206227253E-32
   0.4900721164411455E+00
   0.1213855369667028E-31
   0.4903599279046206E+00
   0.1135215444929512E-31
   0.4944353026095840E+00
   0.8087373028297829E-32
   0.4868191758702977E+00
   0.1037965003662170E-31
   0.4892735512144805E+00
   0.1174742200632673E-31
   0.4881467930726967E+00
   0.1259425514059117E-31
   0.4878252396081330E+00
   0.1050169736067893E-31
   0.4449106780028008E+00
  -0.4106865087685147E-32
   0.4700132875184951E+00
  -0.1581892025219893E-32
   0.4891774917471619E+00
   0.3421855522283205E-32
   0.4885974634682716E+00
   0.8942147614976005E-32
   0.4510294628034506E+00
   0.3546074956227903E-31
   0.4681803399583764E+00
  -0.1277131499781594E-31
   0.4876666907156795E+00
   0.5616064939473434E-32
   0.4868262750090975E+00
   0.8284803544802019E-32
   0.4909268404136964E+00
   0.6382839309206143E-32
   0.4793945543460248E+00
   0.6164714038385835E-32
   0.4657906777213821E+00
  -0.3733537107747099E-32
   0.3794391075096513E+00
   0.3591395937844726E-31
   0.4903637343848402E+00
  -0.4087918844376367E-31
   0.4487969161866985E+00
  -0.1380697374576891E-31
   0.4432386725517385E+00
   0.1236230127038218E-31
   0.4845716407443457E+00
   0.3620966516917190E-32
   0.4621867851108238E+00
  -0.6554410382087916E-32
   0.4663606659234876E+00
  -0.3098489766735640E-31
   0.4747787029547961E+00
   0.2523104931525551E-32
   0.4893811124179818E+00
   0.5096341486855588E-31
   0.5085638676813706E+00
  -0.3638397143998012E-33
   0.4305372591507562E+00
   0.4073420037677781E-31
   0.4927298036614658E+00
   0.4985705779010521E-32
   0.5320327256123909E+00
  -0.5116825082797115E-32
   0.4913855406343023E+00
   0.9644274824025414E-33
   0.5209473688353894E+00
  -0.2235583209586335E-32
   0.5061309364999823E+00
   0.1672406274717031E-32
   0.5690650993919021E+00
   0.1122597436233161E-31
   0.5274990552036585E+00
   0.4059359829475686E-33
   0.5015024129571813E+00
   0.3365585922940077E-32
   0.5821782454631254E+00
   0.3581008170285225E-31
   0.5691769250212108E+00
   0.1983272896922100E-31
   0.3403300368287306E+00
   0.1004088410566904E-30
   0.3786151439693275E+00
  -0.1186138850405756E-31
   0.5753346481750995E+00
   0.5551210736177954E-31
   0.5668543263573894E+00
   0.9988071572866220E-32
   0.5703059562536268E+00
  -0.4924338389918884E-32
   0.5291879205953225E+00
  -0.8599422929997504E-32
   0.5449837175767421E+00
  -0.1358203269018625E-31
   0.5719102639589699E+00
   0.7506933489717529E-32
   0.5385667386742128E+00
  -0.2199660891788345E-31
   0.5475905556229906E+00
   0.2252602991636292E-31
   0.5821515963413855E+00
   0.3436940404602761E-31
   0.4925318968536217E+00
  -0.6088729019262052E-32
   0.5041571115926076E+00
   0.1075816310993951E-32
   0.4961293265019192E+00
  -0.2294776493544776E-32
   0.5562736233265472E+00
   0.4200941363259267E-32
   0.4757837005646423E+00
  -0.3959292140832343E-31
   0.4950183184506471E+00
   0.6361811820346326E-32
   0.5496188055878132E+00
  -0.7029316436302600E-32
   0.5889517159317506E+00
   0.2028614299335550E-31
   0.5839552612739287E+00
   0.1370331147017144E-32
   0.5468175663611112E+00
  -0.4319130902366556E-32
   0.5803880219192166E+00
   0.9789053888922369E-33
   0.5106065646599295E+00
  -0.1881479055588241E-32
   0.5029552653040466E+00
   0.7252677026922249E-33
   0.5033112976890818E+00
   0.1002294883776782E-32
   0.5676222186353560E+00
   0.1966978278354940E-32
   0.5564619505294750E+00
  -0.1970106838298641E-32
   0.4947144959330539E+00
   0.2845423769654003E-32
   0.5506785365921165E+00
  -0.1676775483403411E-31
   0.5513581031285154E+00