# vtk DataFile Version 2.0
FUN3D:global_image_vtk
ASCII
DATASET UNSTRUCTURED_GRID
POINTS 213 double
   -0.5474685441687882E-02    0.5000000000000289E-30    0.2504941971167291E+01
    0.1212121212120889E-30    0.8038138598670453E-04    0.5000000000000035E-30
    0.1245419105183472E+01    0.1000000000000038E-29    0.2504941971167291E+01
    0.1212121212120889E-30    0.1039425058013129E-03    0.1000000000000008E-29
    0.2497696093128780E+01    0.5000000000000191E-30    0.2504941971167291E+01
    0.1212121212120889E-30    0.1101298164665748E-03    0.5000000000000031E-30
    0.3750590968915824E+01    0.1000000000000003E-29    0.2504941971167291E+01
    0.1212121212120889E-30    0.1356499004943611E-03    0.1000000000000008E-29
    0.5003221331742151E+01    0.4999999999999827E-30    0.2504941971167291E+01
    0.1212121212120889E-30    0.9668873038898232E-04    0.5000000000000035E-30
    0.5004676687979097E+01    0.9999999999999784E-30    0.1281291202167040E+01
    0.4999999999997969E-30    0.1638053019384355E-03    0.1000000000000007E-29
    0.5004772673778115E+01    0.4999999999999724E-30    0.2775079906482920E-01
    0.9999999999998831E-30    0.1903478008447593E-03    0.5000000000000033E-30
    0.5003581183341212E+01    0.9999999999999855E-30   -0.1225853508883529E+01
    0.4999999999998451E-30    0.1607765204486577E-03    0.1000000000000008E-29
    0.5001952533742191E+01    0.4999999999999922E-30   -0.2496589036641631E+01
    0.1212121212120990E-30    0.1082258890302553E-03    0.5000000000000031E-30
    0.3750348111606544E+01    0.1000000000000006E-29   -0.2496589036641631E+01
    0.1212121212120990E-30    0.1458753696815805E-03    0.1000000000000008E-29
    0.2498611462994928E+01    0.5000000000000137E-30   -0.2496589036641631E+01
    0.1212121212120990E-30    0.1008933264248220E-03    0.5000000000000041E-30
    0.1247175269333276E+01    0.1000000000000028E-29   -0.2496589036641631E+01
    0.1212121212120990E-30    0.1108587619169648E-03    0.1000000000000007E-29
   -0.3383959865719299E-02    0.5000000000000189E-30   -0.2496589036641631E+01
    0.1212121212120990E-30    0.8107259626494089E-04    0.5000000000000032E-30
   -0.4257768979765637E-02    0.1000000000000028E-29   -0.1225734811642590E+01
    0.4999999999998444E-30    0.3415458742295097E-04    0.1000000000000008E-29
   -0.5251592448509307E-02    0.5000000000000265E-30    0.2619486024420473E-01
    0.9999999999998841E-30    0.1038724387187877E-03    0.5000000000000031E-30
   -0.5676060312426894E-02    0.1000000000000034E-29    0.1278221569065707E+01
    0.4999999999998172E-30    0.8224601702150251E-04    0.1000000000000007E-29
    0.9003209617952581E+00    0.5000000000000413E-30    0.1608979112280158E+01
    0.9999999999998100E-30    0.8704140727672161E-04    0.5000000000000032E-30
    0.3983172210692289E+01    0.1000000000000002E-29   -0.1561211904840279E+01
    0.4999999999998539E-30    0.1757116720370602E-03    0.1000000000000008E-29
    0.4035602039224469E+01    0.4999999999999925E-30    0.1486760030415520E+01
    0.9999999999997878E-30    0.1713312862106630E-03    0.5000000000000031E-30
    0.1036613723302902E+01    0.1000000000000035E-29   -0.1455626429916848E+01
    0.4999999999998457E-30    0.1047189301532907E-03    0.1000000000000007E-29
    0.1094353480630802E+01    0.5000000000000377E-30   -0.2964622010671847E+00
    0.9999999999998992E-30    0.1260590236917267E-03    0.5000000000000031E-30
    0.7298400267480001E+00    0.1000000000000045E-29    0.6874684746719129E+00
    0.4999999999999452E-30    0.1044598640544953E-03    0.1000000000000009E-29
    0.1617018659308944E+01    0.5000000000000393E-30    0.8553208024939380E+00
    0.9999999999999407E-30    0.1529810904974393E-03    0.5000000000000028E-30
    0.2143199662875790E+01    0.1000000000000025E-29   -0.1627128509216730E+01
    0.4999999999998526E-30    0.1606170425226816E-03    0.1000000000000008E-29
    0.4088840445400889E+01    0.4999999999999880E-30   -0.4351047825936258E+00
    0.9999999999999615E-30    0.2719933294109142E-03    0.5000000000000027E-30
    0.2977916511248925E+01    0.1000000000000021E-29   -0.8334991483094489E+00
    0.4999999999999699E-30    0.2245596931861330E-03    0.1000000000000006E-29
    0.3044093241383418E+01    0.5000000000000106E-30   -0.1814361225108581E+01
    0.9999999999998594E-30    0.1617000112420496E-03    0.5000000000000028E-30
    0.3427866614805211E+01    0.1000000000000010E-29    0.3813904839972501E+00
    0.4999999999998972E-30    0.2936955483429104E-03    0.1000000000000007E-29
    0.4313225355351749E+01    0.4999999999999809E-30    0.5489133376342507E+00
    0.9999999999999351E-30    0.2313009573592379E-03    0.5000000000000021E-30
    0.1823032737597358E+01    0.1000000000000036E-29    0.1771265193544254E+01
    0.4999999999997926E-30    0.1836202887151583E-03    0.1000000000000006E-29
    0.2806311152168375E+01    0.5000000000000189E-30    0.1358629373600680E+01
    0.9999999999997878E-30    0.1943492163983820E-03    0.5000000000000021E-30
    0.1891860875936711E+01    0.1000000000000036E-29   -0.8481310365607535E+00
    0.4999999999999660E-30    0.1670645501816171E-03    0.1000000000000008E-29
    0.2268769200166909E+01    0.5000000000000330E-30    0.7723691819196592E-01
    0.9999999999998762E-30    0.2072307783085319E-03    0.5000000000000026E-30
    0.5000000000000000E+01   -0.7070314091866379E-45    0.2504941971167291E+01
    0.1212121212120889E-30    0.1250000000000000E+01   -0.7070314091866379E-45
    0.5000000000000000E+01   -0.7070314091866379E-45    0.2504941971167291E+01
    0.1212121212120889E-30    0.2500000000000000E+01   -0.7070314091866379E-45
    0.5000000000000000E+01   -0.7070314091866379E-45    0.2504941971167291E+01
    0.1212121212120889E-30    0.3750000000000000E+01   -0.7070314091866379E-45
    0.5000000000000000E+01   -0.7070314091866379E-45    0.2504941971167291E+01
    0.1212121212120889E-30    0.5000000000000000E+01   -0.7070314091866379E-45
    0.3750000000000000E+01   -0.7070314091866379E-45    0.2504941971167291E+01
    0.1212121212120889E-30    0.5000000000000000E+01   -0.7070314091866379E-45
    0.2500000000000000E+01   -0.7070314091866379E-45    0.2504941971167291E+01
    0.1212121212120889E-30    0.5000000000000000E+01   -0.7070314091866379E-45
    0.1250000000000000E+01   -0.7070314091866379E-45    0.2504941971167291E+01
    0.1212121212120889E-30    0.5000000000000000E+01   -0.7070314091866379E-45
   -0.1579174316948297E-17   -0.7070314091866379E-45    0.2504941971167291E+01
    0.1212121212120889E-30    0.5000000000000000E+01   -0.7070314091866379E-45
   -0.1579174316948297E-17   -0.7070314091866379E-45    0.2504941971167291E+01
    0.1212121212120889E-30    0.3750000000000000E+01   -0.7070314091866379E-45
   -0.1579174316948297E-17   -0.7070314091866379E-45    0.2504941971167291E+01
    0.1212121212120889E-30    0.2500000000000000E+01   -0.7070314091866379E-45
   -0.1579174316948297E-17   -0.7070314091866379E-45    0.2504941971167291E+01
    0.1212121212120889E-30    0.1250000000000000E+01   -0.7070314091866379E-45
    0.9588956434871094E+00    0.4088323204880528E-30    0.2504941971167291E+01
    0.1212121212120889E-30    0.9696525519543870E+00    0.8253355966553843E-30
    0.3981953078951403E+01    0.7369699780681077E-31    0.2504941971167291E+01
    0.1212121212120889E-30    0.4070563854751271E+01    0.1516277355834224E-30
    0.4036122187252336E+01    0.5331184872991456E-30    0.2504941971167291E+01
    0.1212121212120889E-30    0.1017567520094671E+01    0.8139234257757678E-30
    0.9637572773153890E+00   -0.9331067766049254E-32    0.2504941971167291E+01
    0.1212121212120889E-30    0.3973598203142230E+01    0.1306014370162676E-30
    0.1546540136992395E+01    0.8002905658022316E-31    0.2504941971167291E+01
    0.1212121212120889E-30    0.2931570169315600E+01    0.3996885550970409E-30
    0.6973799521244305E+00    0.3481309069583595E-32    0.2504941971167291E+01
    0.1212121212120889E-30    0.3070319952453756E+01    0.2100037182693284E-30
    0.8903742148356871E+00    0.7712488796526556E-31    0.2504941971167291E+01
    0.1212121212120889E-30    0.2056562238187737E+01    0.4294668085402832E-30
    0.2183041995146013E+01    0.3782461580961146E-31    0.2504941971167291E+01
    0.1212121212120889E-30    0.3960694449828018E+01    0.2259705361729378E-30
    0.3855844872709871E+01    0.1784932175598370E-30    0.2504941971167291E+01
    0.1212121212120889E-30    0.2933250588118630E+01    0.3558534735540158E-30
    0.3152611367438031E+01    0.1115283363371555E-30    0.2504941971167291E+01
    0.1212121212120889E-30    0.3637668388416194E+01    0.2959845527177317E-30
    0.3103307385241870E+01    0.5185271477191006E-31    0.2504941971167291E+01
    0.1212121212120889E-30    0.4332607813099730E+01    0.1521436499788115E-30
    0.3266711045517939E+01    0.3601961362743457E-30    0.2504941971167291E+01
    0.1212121212120889E-30    0.1889656617463738E+01    0.6353768785679278E-30
    0.4232537554484796E+01    0.2580489315428521E-30    0.2504941971167291E+01
    0.1212121212120889E-30    0.1918626969802351E+01    0.4090791405814302E-30
    0.1905522374036519E+01    0.6572817491140235E-30    0.2504941971167291E+01
    0.1212121212120889E-30    0.7226290832134608E+00    0.8977306600899873E-30
    0.2879767723645805E+01    0.6107141644548778E-30    0.2504941971167291E+01
    0.1212121212120889E-30    0.9080945892181979E+00    0.8180347387426129E-30
    0.2012711365064515E+01    0.3615868018472471E-30    0.2504941971167291E+01
    0.1212121212120889E-30    0.1767082390977754E+01    0.7060364642890037E-30
    0.2669681472994638E+01    0.1849800474545328E-30    0.2504941971167291E+01
    0.1212121212120889E-30    0.2853394335010791E+01    0.4820509466880037E-30
    0.5000000000000000E+01   -0.7070314091866379E-45    0.1250000000000000E+01
   -0.7070314091866379E-45    0.5000000000000000E+01   -0.7070314091866379E-45
    0.5000000000000000E+01   -0.7070314091866379E-45   -0.1579174316948297E-17
[...]
POINT_DATA 213
SCALARS rho double 1
LOOKUP_TABLE default
   0.1346104112723649E+01
  -0.1177748424673615E-30
   0.9571903491331497E+00
   0.2105338860119427E-31
   0.9461038290416465E+00
  -0.8779095094461978E-31
   0.9421786672618325E+00
   0.2456881463603750E-31
   0.8436046336997975E+00
  -0.1736211845138778E-31
   0.7741797389655474E+00
   0.2325394058442876E-30
   0.7627419824100385E+00
   0.8541858042732922E-31
   0.7661219851757582E+00
   0.3218986616403491E-31
   0.8310413575247315E+00
  -0.1017160962973313E-30
   0.9353489186299513E+00
   0.3062297141364610E-31
   0.9343650441455789E+00
  -0.7555382267465107E-31
   0.9616038562992916E+00
  -0.8850169692238320E-32
   0.1448476235240776E+01
  -0.2081183631679170E-30
   0.1495412285238565E+01
  -0.7365633765365016E-30
   0.1646720274095600E+01
  -0.3640706105216468E-30
   0.1426613073070308E+01
  -0.5489067552490256E-30
   0.1009795353184926E+01
  -0.4445868811652525E-31
   0.9511284734490163E+00
  -0.2355860253456243E-31
   0.9438188043405211E+00
   0.1498879971384302E-31
   0.9574580387162923E+00
  -0.1792842680651727E-31
   0.9414846125206292E+00
   0.1312243373635564E-31
   0.1037108342698016E+01
  -0.2075758475266065E-30
   0.9258006959277930E+00
  -0.3406736637157125E-31
   0.9322233224195342E+00
  -0.7677243648714664E-31
   0.9537965124595261E+00
  -0.3497551167172236E-31
   0.9520323477114330E+00
  -0.4176183276736261E-31
   0.9350812126714271E+00
  -0.1570895328077784E-31
   0.9565401507227398E+00
  -0.2965753545987997E-31
   0.9378567538550917E+00
  -0.1528062613561489E-32
   0.9303316268272667E+00
  -0.2939994055047187E-31
   0.9446336981946298E+00
   0.1254274063717121E-31
   0.8862201826496103E+00
   0.5289745523928809E-31
   0.9423971762701339E+00
   0.1081081837221170E-30
   0.9637378532738370E+00
  -0.3493845640968470E-31
   0.1008365837937388E+01
  -0.1360413539775771E-32
   0.1006746175188509E+01
   0.1397627460977686E-32
   0.1001852552218086E+01
  -0.1536207035272425E-32
   0.1003122817309736E+01
  -0.4957759609352769E-32
   0.1004081828804510E+01
  -0.6424106015598097E-32
   0.1005202254168427E+01
  -0.5551311262526485E-32
   0.1004248610026188E+01
  -0.1779824420657844E-32
   0.1008252799192894E+01
  -0.4605247562743327E-32
   0.1023858607136140E+01
   0.4152212949172871E-33
   0.1063738953153100E+01
   0.3344745945438216E-32
   0.1019385133798901E+01
   0.2520128597944955E-32
   0.1001768734554034E+01
  -0.2338506692505442E-32
   0.9646458090800193E+00
  -0.5028913120443312E-31
   0.1005244828510976E+01
  -0.4551687258952444E-32
   0.1000724682919175E+01
  -0.7095062489957236E-33
   0.1008678682970906E+01
  -0.3752094239524211E-32
   0.1008020660965484E+01
   0.1480544137659876E-32
   0.1002340125808563E+01
  -0.4755045126829055E-32
   0.9980209478970451E+00
  -0.2392020861162924E-32
   0.1000589300607055E+01
  -0.3350492312726297E-32
   0.1001603655213661E+01
  -0.4575944067856038E-32
   0.9827867725428958E+00
  -0.1135276897662360E-31
   0.9843798799066950E+00
  -0.8417468110613998E-32
   0.9834042675343295E+00
  -0.4733962218873568E-31
   0.9790659196446555E+00
  -0.3594726474957243E-31
   0.9904614141123961E+00
  -0.1232892125067125E-31
   0.9935051532245955E+00
  -0.2662832573697907E-32
   0.1001924190186037E+01
  -0.1380962102672556E-32
   0.1002056922985340E+01
  -0.1351707532208770E-32
   0.1002228331803763E+01
  -0.8393648168700703E-33
   0.1001730255456001E+01
  -0.6958498059183699E-33
   0.1009833892126820E+01
   0.1383380063816078E-32
   0.1006499751585272E+01
  -0.3835655569041414E-32
   0.9560844478746767E+00
  -0.3354370382058807E-31
   0.9252785243141359E+00
  -0.3952381806879100E-31
   0.1007055966428352E+01
   0.7976511526397522E-33
   0.1004493921254293E+01
   0.2054199977917177E-33
   0.9145119771325780E+00
  -0.4177821750105506E-31
   0.9091795758045695E+00
  -0.2052006656296617E-31
   0.8752647360798657E+00
  -0.1980192933843439E-31
   0.9767635246715164E+00
  -0.1294216438413039E-31
   0.1000508027693662E+01
  -0.2755826547956173E-32
   0.1005828508886623E+01
   0.4363981802670337E-33
   0.1012915500135835E+01
   0.1032662679640817E-32
   0.1011701552285998E+01
   0.7795548173709784E-33
   0.1010446303448466E+01
   0.1926290584317902E-33
   0.1005435864252229E+01
   0.4081466564294105E-33
   0.9908923573646728E+00
  -0.7224934299149982E-32
   0.1005170155348068E+01
  -0.1661547445386295E-32
   0.9860674061003216E+00
  -0.2148276768353487E-32
   0.1005575216129326E+01
  -0.1863679428830029E-32
   0.1004234024685782E+01
  -0.2056665823385757E-32
   0.1002867209222495E+01
  -0.1681852055675863E-32
   0.1003331994463431E+01
  -0.1877131229460183E-32
   0.1003991653602905E+01
  -0.2028350283476552E-32
   0.1005101039030784E+01
  -0.5183030722723995E-32
   0.1003212207699901E+01
  -0.5831741215423421E-32
   0.1002637492228728E+01
  -0.4189179566892520E-32
   0.1002502745608185E+01
  -0.4323669966109580E-32
   0.1004057396984234E+01
  -0.3756367393364178E-32
   0.1004282820105840E+01
  -0.4588454393602462E-32
   0.1001609814838669E+01
  -0.3463399755269482E-32
   0.1002217665176369E+01
  -0.4005145939109828E-32
   0.1002468367505519E+01
  -0.3852775187832739E-32
   0.1003439288426068E+01
  -0.5408347769832802E-32
   0.1003370671919061E+01
  -0.5343965888858674E-32
   0.1003221130644628E+01
  -0.2924237922065958E-32
   0.1004423233064596E+01
  -0.5450511839955134E-32
   0.1004318510695373E+01
  -0.5623282470155034E-32
   0.1003642661763478E+01
  -0.3710496370709921E-32
   0.1003655854992641E+01
  -0.5508222037735617E-32
   0.1004293540970943E+01
  -0.5874132991987175E-32
   0.1004444079154416E+01
  -0.6236220106502831E-32
   0.1003597836103577E+01
  -0.5797577101041795E-32
   0.1064478501260899E+01
  -0.6240446344095923E-32
   0.1028431741422069E+01
   0.2149786550111694E-32
   0.1009589712904704E+01
  -0.3227551315304826E-32
   0.1006618462887691E+01
  -0.3756897784440584E-32
   0.1163948094949471E+01
  -0.4692378818854553E-31
   0.1086027571124086E+01
  -0.2897099464485306E-32
   0.1007889160004875E+01
  -0.3562820457526497E-32
   0.1007235385993231E+01
  -0.3855579627555798E-32
   0.1006787933956925E+01
  -0.3675521111759507E-32
   0.1013043553053899E+01
  -0.2685662693131604E-32
   0.1019325759384393E+01
   0.3030551671891307E-32
   0.1235116537386775E+01
  -0.1137276586779078E-30
   0.1032531305383129E+01
   0.5356935715852442E-32
   0.1046547837977742E+01
   0.8886648610646093E-32
   0.1201689429483417E+01
  -0.2044427983239502E-31
   0.1014664271442206E+01
  -0.2599627934503113E-32
   0.1032281615009900E+01
   0.4127820059820128E-32
   0.1028207161798281E+01
   0.3260066600751263E-32
   0.1014626725066504E+01
  -0.1090810096445877E-32
   0.1028978904504426E+01
  -0.6297489674561201E-33
   0.1001996533763613E+01
  -0.2298776650333511E-32
   0.9608243857498944E+00
  -0.4495403753081862E-31
   0.1006844956941690E+01
  -0.3925092047048644E-32
   0.1001307837592133E+01
  -0.6188300568142925E-32
   0.1010783430631220E+01
  -0.1825708309481275E-32
   0.1012221706275965E+01
  -0.4528976220298572E-32
   0.1000928017628888E+01
  -0.4625115946891255E-32
   0.9979282406865740E+00
  -0.4920834900359688E-32
   0.9980614932323649E+00
  -0.4037896631950178E-32
   0.1001176548349038E+01
  -0.4343569521935733E-32
   0.9841812731315498E+00
  -0.2062215899216591E-31
   0.9814961862050061E+00
  -0.1477532203259342E-31
   0.9648728360109693E+00
  -0.4546432913229020E-31
   0.9680840001066365E+00
  -0.4911561176890383E-31
   0.9914051939211191E+00
  -0.1969398915396904E-31
   0.9910783985321840E+00
  -0.6128058527832290E-32
   0.9925437789143671E+00
  -0.5717781562253836E-32
   0.1001710365771595E+01
  -0.3509817413482375E-32
   0.9993069383172642E+00
  -0.3763559722918231E-32
   0.9941305195259211E+00
  -0.5645439209756778E-32
   0.1006968141443798E+01
   0.4348304347090910E-33
   0.1022601712309257E+01
   0.5264789018962584E-32
   0.1001119237924489E+01
  -0.2126061167165913E-31
   0.1008768064296202E+01
  -0.3708740924829174E-32
   0.1004758472892038E+01
  -0.4099822152311753E-32
   0.1009009495395491E+01
  -0.2889902265438026E-32
   0.9967078824112022E+00
  -0.6000838731201660E-32
   0.1005562051399542E+01
  -0.2369296593883702E-32
   0.1003315941527080E+01
  -0.5046954760132730E-32
   0.9949741629039394E+00
  -0.3876605593021597E-32
   0.9833334312612448E+00
  -0.8785017195372195E-32
   0.9944339667901775E+00
  -0.5061271954283647E-32
   0.9973423043754760E+00
  -0.3755578595200965E-32
   0.9932309090309255E+00
  -0.5556239599792346E-32
   0.1001303161237022E+01
  -0.4149302041866070E-32
   0.1002992529542321E+01
  -0.4506790212381909E-32
   0.1002173042086744E+01
  -0.4079310024473679E-32
   0.9947102640905962E+00
  -0.3099900609529429E-32
   0.9937772284604637E+00
  -0.3605464038514690E-32
   0.1004847059845625E+01
  -0.4870153557136316E-32
   0.1020087968849731E+01
  -0.7011527691053253E-32
   0.1005326487468160E+01
  -0.1031790338487433E-31
   0.9816960042228575E+00
  -0.1689109459317563E-31
   0.1004962855551945E+01
  -0.4682728702373341E-32
   0.1012358368557827E+01
  -0.2271483402182836E-32
   0.9873618532419841E+00
  -0.2686272840570902E-31
   0.9551234581435054E+00
  -0.1223233642962633E-32
   0.9865162565433993E+00
  -0.1929572841646166E-31
   0.9865801045027214E+00
  -0.1251145524732725E-31
   0.9920002453482007E+00
  -0.4789116264397686E-31
   0.9934318483075519E+00
  -0.2363209523422154E-31
   0.9960583368325122E+00
  -0.5868744901791693E-31
   0.1037392280801415E+01
  -0.1613237978519741E-31
   0.1033148951656538E+01
  -0.8007258204424487E-32
   0.1001425563311412E+01
  -0.2726152344079048E-32
   0.1001910935159587E+01
  -0.4809775034645145E-32
   0.9912157829128303E+00
  -0.3060764963939379E-32
   0.9911014773418040E+00
  -0.8073414269971053E-32
   0.9649137707289287E+00
  -0.1819998478588899E-31
   0.9933666723342788E+00
  -0.4460629350814741E-32
   0.1006091568707583E+01
  -0.4339729250593529E-33
   0.1001960928761720E+01
  -0.1161916869075541E-32
   0.9908500153799352E+00
  -0.6823254848125437E-32
   0.9741982125605302E+00
  -0.1690166629404776E-31
   0.9420573701447583E+00
  -0.3341434007840110E-31
   0.9821364616887478E+00
  -0.2439294889579793E-31
   0.9794649239430753E+00
  -0.1146568870895634E-31
   0.9704393706417530E+00
  -0.1552708648531634E-31
   0.9720648342691302E+00
  -0.3525959034133429E-31
   0.9557768680616846E+00
  -0.1221567251880290E-31
   0.9498131143483628E+00
  -0.3129783283508588E-31
   0.9530016168120354E+00
  -0.4062964325927923E-31
   0.1002617864396325E+01
  -0.3572620125097637E-32
   0.1002470583367154E+01
  -0.4777323513034300E-32
   0.1000505390051314E+01
  -0.3049114244839706E-32
   0.1001688919236218E+01
  -0.1489680294590100E-32
   0.9609798330953144E+00
  -0.3567596476368539E-31
   0.9492853587061045E+00
  -0.6638492617007450E-31
   0.9586748637718672E+00
  -0.3162728741355546E-31
   0.1001115754953709E+01
  -0.4397501777626069E-32
   0.1000497534629798E+01
  -0.3482121275089064E-32
   0.1001172380924398E+01
  -0.2036935127696699E-32
   0.9807328876245633E+00
  -0.1687055281081959E-31
   0.9805471026878332E+00
  -0.2126322922329553E-31
   0.9629256342063341E+00
  -0.2920264196262499E-31
SCALARS u double 1
LOOKUP_TABLE default
   0.0000000000000000E+00
   0.0000000000000000E+00
   0.0000000000000000E+00
   0.0000000000000000E+00
   0.0000000000000000E+00
   0.0000000000000000E+00
   0.0000000000000000E+00
   0.0000000000000000E+00
   0.0000000000000000E+00
   0.0000000000000000E+00
   0.0000000000000000E+00
   0.0000000000000000E+00
   0.0000000000000000E+00
   0.0000000000000000E+00
   0.0000000000000000E+00
   0.0000000000000000E+00
   0.0000000000000000E+00
   0.0000000000000000E+00
   0.0000000000000000E+00
   0.0000000000000000E+00
   0.0000000000000000E+00
   0.0000000000000000E+00
   0.0000000000000000E+00
   0.0000000000000000E+00
   0.0000000000000000E+00
   0.0000000000000000E+00
   0.0000000000000000E+00
   0.0000000000000000E+00
   0.0000000000000000E+00
   0.0000000000000000E+00
   0.0000000000000000E+00
   0.0000000000000000E+00
   0.0000000000000000E+00
   0.0000000000000000E+00
   0.0000000000000000E+00
   0.0000000000000000E+00
   0.0000000000000000E+00
   0.0000000000000000E+00
   0.0000000000000000E+00
   0.0000000000000000E+00
   0.0000000000000000E+00
   0.0000000000000000E+00
   0.0000000000000000E+00
   0.0000000000000000E+00
   0.0000000000000000E+00
   0.0000000000000000E+00
   0.0000000000000000E+00
   0.0000000000000000E+00
   0.0000000000000000E+00
   0.0000000000000000E+00
   0.0000000000000000E+00
   0.0000000000000000E+00
   0.0000000000000000E+00
   0.0000000000000000E+00
   0.0000000000000000E+00
   0.0000000000000000E+00
   0.0000000000000000E+00
   0.0000000000000000E+00
   0.0000000000000000E+00
   0.0000000000000000E+00
   0.0000000000000000E+00
   0.0000000000000000E+00
   0.0000000000000000E+00
   0.0000000000000000E+00
   0.0000000000000000E+00
   0.0000000000000000E+00
   0.4945073042646110E+00
  -0.2495834277718986E-31
   0.5336140158712351E+00
  -0.9292979651258787E-32
   0.5183281437246541E+00
  -0.3167516942798039E-32
   0.4930097280427200E+00
   0.1388714722815206E-33
   0.4845536554664220E+00
   0.8796211976774362E-32
   0.4867818990199038E+00
   0.1323696904508090E-31
   0.4891961135133183E+00
   0.1150642806921806E-31
   0.4958542915018657E+00
   0.1818939813995817E-32
   0.4899039478213370E+00
   0.6914713949315752E-32
   0.4718201576656819E+00
   0.2519509560329824E-33
   0.4449075661554107E+00
  -0.4925250926740669E-32
   0.4844432432210468E+00
   0.5358800561886019E-31
   0.5098760687106864E+00
  -0.3715442065728943E-33
   0.4401340357556987E+00
   0.9159453200688308E-31
   0.4949817804736549E+00
   0.5820165634584693E-32
   0.5223239045970248E+00
  -0.5212914020288108E-32
   0.4962866499922292E+00
   0.2746839301372358E-32
   0.5224022665507999E+00
  -0.1080160270154775E-31
   0.5038815765278954E+00
   0.3091815446060659E-32
   0.5645098751692159E+00
  -0.3209186078959406E-32
   0.5246817303725101E+00
  -0.3365914579568461E-32
   0.4991801382636640E+00
   0.3912976181581302E-32
   0.5728962919072056E+00
   0.1632155691868202E-31
   0.5693182394645416E+00
  -0.6711346318793070E-33
   0.3752067702249882E+00
   0.9375785296077099E-31
   0.4003042209132248E+00
   0.6332160480896005E-31
   0.5599423175259663E+00
   0.3110553942156454E-31
   0.5562675254507440E+00
  -0.1476677142228090E-32
   0.4941822714817126E+00
  -0.1099273646835542E-32
   0.4948048413078585E+00
  -0.2324694304057244E-32
   0.4924971490931415E+00
  -0.3805139889174643E-32
   0.4913563729916131E+00
  -0.2232986082161164E-32
   0.5163189127969418E+00
  -0.6653101807100804E-33
   0.5363661592435587E+00
   0.5399217464177287E-32
   0.4951167734660195E+00
  -0.5107584024356566E-32
   0.4520191724949458E+00
  -0.3410847460127632E-31
   0.5129271465472537E+00
  -0.1297020747332491E-32
   0.5118233671926374E+00
  -0.2558786524635915E-32
   0.4785955279693596E+00
  -0.1185389481028438E-31
   0.4930900776608180E+00
  -0.3459621243315953E-31
   0.4599956212610949E+00
  -0.7831669835510426E-31
   0.5242715510814641E+00
  -0.2542052788396359E-31
   0.5299975238102198E+00
  -0.3445451684839231E-32
   0.5129946896510982E+00
  -0.4536426299875547E-32
   0.5328899542038406E+00
   0.1316363722189415E-32
   0.5309928462374447E+00
   0.3281510219142782E-32
   0.5309915775190027E+00
  -0.2796509445656298E-32
   0.5063864608486622E+00
  -0.4119405177099810E-32
   0.5279321581842614E+00
  -0.1517227379106220E-31
   0.5409200110333351E+00
  -0.4861659679360561E-32
   0.5363714870983470E+00
  -0.1519815398698690E-31
   0.5374272761026133E+00
  -0.6323338093709110E-32
   0.4965526973950113E+00
   0.7321608441873160E-33
   0.4975488985352288E+00
   0.6329796229815834E-33
   0.4963897791677199E+00
   0.2123624344281508E-32
   0.4955329173155159E+00
   0.1939531611443346E-32
   0.4904111452868170E+00
   0.9834059434171753E-32
   0.4901949529218995E+00
   0.1110169464671800E-31
   0.4859893152880017E+00
   0.6103580535831824E-32
   0.4851932087613090E+00
   0.5914769446251799E-32
   0.4932040842723822E+00
   0.7533392990747096E-32
   0.4910575361858160E+00
   0.9908151830174074E-32
   0.4830347370833515E+00
   0.2586972973679748E-32
   0.4871027304224616E+00
   0.3644459862893522E-32
   0.4878378147725712E+00
   0.3569922390408851E-32
   0.4871418395266576E+00
   0.9145951391966653E-32
   0.4881058065294691E+00
   0.1088826948705906E-31
   0.4952662095908219E+00
   0.6074531746953021E-32
   0.4900693854415459E+00
   0.1231795658228478E-31
   0.4903394850931656E+00
   0.1151870745618307E-31
   0.4944555672020506E+00
   0.8143882573584702E-32
   0.4867061060360505E+00
   0.1079129304646180E-31
   0.4892684812662866E+00
   0.1197646838619334E-31
   0.4881456612841394E+00
   0.1277443672192736E-31
   0.4877442211570346E+00
   0.1070890341757749E-31
   0.4449178748289143E+00
  -0.3984274296004190E-32
   0.4700238148214417E+00
  -0.1589198684027422E-32
   0.4891918091910079E+00
   0.3431460215921287E-32
   0.4885806174013956E+00
   0.8965087062487482E-32
   0.4510577201918860E+00
   0.3543562407128566E-31
   0.4681652389918041E+00
  -0.1280849310818117E-31
   0.4876733791419468E+00
   0.5604102434521066E-32
   0.4868288359451675E+00
   0.8274525525060804E-32
   0.4909345859700748E+00
   0.6355881850980974E-32
   0.4794074806754021E+00
   0.6189881688923415E-32
   0.4658127939386362E+00
  -0.3736718492606433E-32
   0.3794480323988204E+00
   0.3590645261723878E-31
   0.4903659836211845E+00
  -0.4084424861289902E-31
   0.4488145846151422E+00
  -0.1380078448305022E-31
   0.4432557818237435E+00
   0.1246162612264532E-31
   0.4845808637254131E+00
   0.3637191736168650E-32
   0.4622197889226591E+00
  -0.6533193687317625E-32
   0.4663850529749550E+00
  -0.3097670399972943E-31
   0.4747957423894500E+00
   0.2533312054574776E-32
   0.4893963455366296E+00
   0.5099763165409315E-31
   0.5086685812562968E+00
  -0.1321467542907797E-33
   0.4305168764516548E+00
   0.4074539421864641E-31
   0.4927437308992824E+00
   0.4975748261285567E-32
   0.5320485418449965E+00
  -0.5120202901114935E-32
   0.4913953482872566E+00
   0.9673148947595580E-33
   0.5209580784391693E+00
  -0.2200588975457420E-32
   0.5062018369527741E+00
   0.1696368824345265E-32
   0.5691203213548950E+00
   0.1127051812668568E-31
   0.5275839021154336E+00
   0.4550492311575874E-33
   0.5015545548534878E+00
   0.3536227875147518E-32
   0.5821420067664240E+00
   0.3584181099556156E-31
   0.5691461764461910E+00
   0.1982133563403388E-31
   0.3403384186870011E+00
   0.1004267042891514E-30
   0.3785942961899105E+00
  -0.1183177202751714E-31
   0.5753331056530611E+00
   0.5555698052990068E-31
   0.5668697388180524E+00
   0.9993276360271703E-32
   0.5703101371390502E+00
  -0.4909133612985168E-32
   0.5292031765148010E+00
  -0.8580810718165802E-32
   0.5449946471136812E+00
  -0.1356660211722376E-31
   0.5719061215947178E+00
   0.7538958799511235E-32
   0.5385834371726906E+00
  -0.2197544116037760E-31
   0.5475993562799066E+00
   0.2256113899369433E-31
   0.5821562977846308E+00
   0.3440157373594383E-31
   0.4925469773405360E+00
  -0.6081551677897434E-32
   0.5041939793058625E+00
   0.1077637901500097E-32
   0.4961441954916102E+00
  -0.2281347488847583E-32
   0.5562794023374701E+00
   0.4224648511486043E-32
   0.4757931348952057E+00
  -0.3956602255877283E-31
   0.4950441645968678E+00
   0.6410139270941840E-32
   0.5496544892819933E+00
  -0.7021108950261662E-32
   0.5889369927295656E+00
   0.2030464357557185E-31
   0.5839896648541715E+00
   0.1371418466450301E-32
   0.5468843582477912E+00
  -0.4275207619646786E-32
   0.5803823833565468E+00
   0.9819266485800246E-33
   0.5106740439854638E+00
  -0.1766015866226260E-32
   0.5030195989868472E+00
   0.8270185825866421E-33
   0.5033659703861137E+00
   0.1260140609017270E-32
   0.5676455736612166E+00
   0.1961368837649958E-32
   0.5564984305379828E+00
  -0.1919901506995411E-32
   0.4947439351328523E+00
   0.2872599975329087E-32
   0.5506859806548222E+00
  -0.1674088878086823E-31
   0.5513610574430776E+00