# vtk DataFile Version 2.0
FUN3D:global_image_vtk
ASCII
DATASET UNSTRUCTURED_GRID
POINTS 213 double
   -0.5474685441687832E-02    0.4999999999999959E-30    0.2504941971167291E+01
    0.1212121212121247E-30    0.8038138598670530E-04    0.5000000000000000E-30
    0.1245419105183472E+01    0.1000000000000000E-29    0.2504941971167291E+01
    0.1212121212121247E-30    0.1039425058013133E-03    0.1000000000000000E-29
    0.2497696093128780E+01    0.5000000000000000E-30    0.2504941971167291E+01
    0.1212121212121247E-30    0.1101298164665754E-03    0.5000000000000000E-30
    0.3750590968915824E+01    0.1000000000000000E-29    0.2504941971167291E+01
    0.1212121212121247E-30    0.1356499004943612E-03    0.1000000000000000E-29
    0.5003221331742151E+01    0.5000000000000000E-30    0.2504941971167291E+01
    0.1212121212121247E-30    0.9668873038898296E-04    0.5000000000000000E-30
    0.5004676687979097E+01    0.1000000000000000E-29    0.1281291202167040E+01
    0.5000000000000227E-30    0.1638053019384356E-03    0.1000000000000000E-29
    0.5004772673778115E+01    0.5000000000000042E-30    0.2775079906482894E-01
    0.1000000000000017E-29    0.1903478008447590E-03    0.5000000000000000E-30
    0.5003581183341212E+01    0.1000000000000000E-29   -0.1225853508883529E+01
    0.5000000000000165E-30    0.1607765204486578E-03    0.1000000000000000E-29
    0.5001952533742191E+01    0.5000000000000000E-30   -0.2496589036641631E+01
    0.1212121212121236E-30    0.1082258890302557E-03    0.5000000000000000E-30
    0.3750348111606544E+01    0.1000000000000000E-29   -0.2496589036641631E+01
    0.1212121212121236E-30    0.1458753696815807E-03    0.1000000000000000E-29
    0.2498611462994928E+01    0.5000000000000000E-30   -0.2496589036641631E+01
    0.1212121212121236E-30    0.1008933264248224E-03    0.5000000000000000E-30
    0.1247175269333276E+01    0.1000000000000000E-29   -0.2496589036641631E+01
    0.1212121212121236E-30    0.1108587619169654E-03    0.1000000000000000E-29
   -0.3383959865719266E-02    0.4999999999999959E-30   -0.2496589036641631E+01
    0.1212121212121236E-30    0.8107259626494168E-04    0.5000000000000000E-30
   -0.4257768979765597E-02    0.1000000000000000E-29   -0.1225734811642590E+01
    0.5000000000000165E-30    0.3415458742295208E-04    0.1000000000000000E-29
   -0.5251592448509257E-02    0.4999999999999959E-30    0.2619486024420453E-01
    0.1000000000000017E-29    0.1038724387187884E-03    0.5000000000000000E-30
   -0.5676060312426845E-02    0.9999999999999919E-30    0.1278221569065707E+01
    0.5000000000000186E-30    0.8224601702150336E-04    0.1000000000000000E-29
    0.9003209617952581E+00    0.4999999999999959E-30    0.1608979112280158E+01
    0.1000000000000021E-29    0.8704140727672227E-04    0.5000000000000000E-30
    0.3983172210692289E+01    0.1000000000000000E-29   -0.1561211904840279E+01
    0.5000000000000165E-30    0.1757116720370600E-03    0.1000000000000000E-29
    0.4035602039224469E+01    0.5000000000000000E-30    0.1486760030415520E+01
    0.1000000000000025E-29    0.1713312862106631E-03    0.5000000000000000E-30
    0.1036613723302902E+01    0.1000000000000000E-29   -0.1455626429916848E+01
    0.5000000000000165E-30    0.1047189301532914E-03    0.1000000000000000E-29
    0.1094353480630802E+01    0.4999999999999959E-30   -0.2964622010671852E+00
    0.1000000000000025E-29    0.1260590236917269E-03    0.5000000000000000E-30
    0.7298400267480001E+00    0.9999999999999919E-30    0.6874684746719117E+00
    0.5000000000000782E-30    0.1044598640544958E-03    0.1000000000000000E-29
    0.1617018659308944E+01    0.4999999999999959E-30    0.8553208024939336E+00
    0.1000000000001493E-29    0.1529810904974394E-03    0.5000000000000000E-30
    0.2143199662875790E+01    0.1000000000000000E-29   -0.1627128509216730E+01
    0.5000000000000165E-30    0.1606170425226816E-03    0.1000000000000000E-29
    0.4088840445400889E+01    0.5000000000000000E-30   -0.4351047825936264E+00
    0.1000000000000017E-29    0.2719933294109134E-03    0.5000000000000000E-30
    0.2977916511248925E+01    0.1000000000000000E-29   -0.8334991483094534E+00
    0.5000000000014894E-30    0.2245596931861327E-03    0.1000000000000000E-29
    0.3044093241383418E+01    0.5000000000000000E-30   -0.1814361225108581E+01
    0.1000000000000017E-29    0.1617000112420497E-03    0.5000000000000000E-30
    0.3427866614805211E+01    0.1000000000000000E-29    0.3813904839972497E+00
    0.5000000000000186E-30    0.2936955483429093E-03    0.1000000000000000E-29
    0.4313225355351749E+01    0.5000000000000000E-30    0.5489133376342462E+00
    0.1000000000001493E-29    0.2313009573592373E-03    0.5000000000000000E-30
    0.1823032737597358E+01    0.1000000000000000E-29    0.1771265193544254E+01
    0.5000000000000227E-30    0.1836202887151583E-03    0.1000000000000000E-29
    0.2806311152168375E+01    0.5000000000000000E-30    0.1358629373600680E+01
    0.1000000000000025E-29    0.1943492163983818E-03    0.5000000000000000E-30
    0.1891860875936711E+01    0.1000000000000000E-29   -0.8481310365607579E+00
    0.5000000000014894E-30    0.1670645501816170E-03    0.1000000000000000E-29
    0.2268769200166909E+01    0.4999999999999959E-30    0.7723691819196567E-01
    0.1000000000000017E-29    0.2072307783085314E-03    0.5000000000000000E-30
    0.5000000000000000E+01   -0.1051171612083883E-45    0.2504941971167291E+01
    0.1212121212121247E-30    0.1250000000000000E+01   -0.1051171612083883E-45
    0.5000000000000000E+01   -0.1051171612083883E-45    0.2504941971167291E+01
    0.1212121212121247E-30    0.2500000000000000E+01   -0.1051171612083883E-45
    0.5000000000000000E+01   -0.1051171612083883E-45    0.2504941971167291E+01
    0.1212121212121247E-30    0.3750000000000000E+01   -0.1051171612083883E-45
    0.5000000000000000E+01   -0.1051171612083883E-45    0.2504941971167291E+01
    0.1212121212121247E-30    0.5000000000000000E+01   -0.1051171612083883E-45
    0.3750000000000000E+01   -0.1051171612083883E-45    0.2504941971167291E+01
    0.1212121212121247E-30    0.5000000000000000E+01   -0.1051171612083883E-45
    0.2500000000000000E+01   -0.1051171612083883E-45    0.2504941971167291E+01
    0.1212121212121247E-30    0.5000000000000000E+01   -0.1051171612083883E-45
    0.1250000000000000E+01   -0.1051171612083883E-45    0.2504941971167291E+01
    0.1212121212121247E-30    0.5000000000000000E+01   -0.1051171612083883E-45
    0.1673546247323267E-18   -0.1051171612083883E-45    0.2504941971167291E+01
    0.1212121212121247E-30    0.5000000000000000E+01   -0.1051171612083883E-45
    0.1673546247323267E-18   -0.1051171612083883E-45    0.2504941971167291E+01
    0.1212121212121247E-30    0.3750000000000000E+01   -0.1051171612083883E-45
    0.1673546247323267E-18   -0.1051171612083883E-45    0.2504941971167291E+01
    0.1212121212121247E-30    0.2500000000000000E+01   -0.1051171612083883E-45
    0.1673546247323267E-18   -0.1051171612083883E-45    0.2504941971167291E+01
    0.1212121212121247E-30    0.1250000000000000E+01   -0.1051171612083883E-45
    0.9588956434871094E+00    0.4088323204878878E-30    0.2504941971167291E+01
    0.1212121212121247E-30    0.9696525519543872E+00    0.8253355966552493E-30
    0.3981953078951400E+01    0.7369699780777704E-31    0.2504941971167291E+01
    0.1212121212121247E-30    0.4070563854751271E+01    0.1516277355818257E-30
    0.4036122187252336E+01    0.5331184872985358E-30    0.2504941971167291E+01
    0.1212121212121247E-30    0.1017567520094671E+01    0.8139234257757778E-30
    0.9637572773153879E+00   -0.9331067766157081E-32    0.2504941971167291E+01
    0.1212121212121247E-30    0.3973598203142228E+01    0.1306014370164165E-30
    0.1546540136992395E+01    0.8002905657920740E-31    0.2504941971167291E+01
    0.1212121212121247E-30    0.2931570169315600E+01    0.3996885550963496E-30
    0.6973799521244308E+00    0.3481309068351621E-32    0.2504941971167291E+01
    0.1212121212121247E-30    0.3070319952453755E+01    0.2100037182692715E-30
    0.8903742148356887E+00    0.7712488796303823E-31    0.2504941971167291E+01
    0.1212121212121247E-30    0.2056562238187737E+01    0.4294668085397642E-30
    0.2183041995146010E+01    0.3782461581003522E-31    0.2504941971167291E+01
    0.1212121212121247E-30    0.3960694449828019E+01    0.2259705361709003E-30
    0.3855844872709870E+01    0.1784932175604444E-30    0.2504941971167291E+01
    0.1212121212121247E-30    0.2933250588118631E+01    0.3558534735527309E-30
    0.3152611367438027E+01    0.1115283363381589E-30    0.2504941971167291E+01
    0.1212121212121247E-30    0.3637668388416196E+01    0.2959845527138269E-30
    0.3103307385241868E+01    0.5185271477238327E-31    0.2504941971167291E+01
    0.1212121212121247E-30    0.4332607813099731E+01    0.1521436499769788E-30
    0.3266711045517940E+01    0.3601961362731620E-30    0.2504941971167291E+01
    0.1212121212121247E-30    0.1889656617463739E+01    0.6353768785668481E-30
    0.4232537554484796E+01    0.2580489315425656E-30    0.2504941971167291E+01
    0.1212121212121247E-30    0.1918626969802351E+01    0.4090791405804122E-30
    0.1905522374036519E+01    0.6572817491137491E-30    0.2504941971167291E+01
    0.1212121212121247E-30    0.7226290832134608E+00    0.8977306600900436E-30
    0.2879767723645806E+01    0.6107141644543720E-30    0.2504941971167291E+01
    0.1212121212121247E-30    0.9080945892181980E+00    0.8180347387425602E-30
    0.2012711365064516E+01    0.3615868018456259E-30    0.2504941971167291E+01
    0.1212121212121247E-30    0.1767082390977754E+01    0.7060364642885736E-30
    0.2669681472994637E+01    0.1849800474539502E-30    0.2504941971167291E+01
    0.1212121212121247E-30    0.2853394335010792E+01    0.4820509466863387E-30
    0.5000000000000000E+01   -0.1051171612083883E-45    0.1250000000000000E+01
   -0.1051171612083883E-45    0.5000000000000000E+01   -0.1051171612083883E-45
    0.5000000000000000E+01   -0.1051171612083883E-45    0.1673546247323267E-18
[...]
POINT_DATA 213
SCALARS rho double 1
LOOKUP_TABLE default
   0.1346108316263259E+01
  -0.1177608889789073E-30
   0.9572039998600546E+00
   0.2108874295906907E-31
   0.9461172176739960E+00
  -0.8777077100599914E-31
   0.9421724422232417E+00
   0.2463028740743802E-31
   0.8436076751988696E+00
  -0.1732596975543466E-31
   0.7742023688679458E+00
   0.2325429216600631E-30
   0.7627583542973817E+00
   0.8548765174567407E-31
   0.7661562012440231E+00
   0.3222200611770731E-31
   0.8310489475274542E+00
  -0.1016795665032269E-30
   0.9353548242975437E+00
   0.3068730503139008E-31
   0.9343897288268616E+00
  -0.7551866941288504E-31
   0.9616167925151784E+00
  -0.8801524610563811E-32
   0.1448475453679504E+01
  -0.2080910580670109E-30
   0.1495420693456563E+01
  -0.7365293102148905E-30
   0.1646729694953907E+01
  -0.3640616153925228E-30
   0.1426611750618528E+01
  -0.5489176093562401E-30
   0.1009807294814251E+01
  -0.4443517874318089E-31
   0.9511451599258054E+00
  -0.2350095873653250E-31
   0.9438202812351744E+00
   0.1502190680063767E-31
   0.9574649706908134E+00
  -0.1788241073978510E-31
   0.9414971310207740E+00
   0.1314199484841922E-31
   0.1037119050552769E+01
  -0.2075618299960513E-30
   0.9258166083497231E+00
  -0.3401752252249235E-31
   0.9322402496787952E+00
  -0.7674207917361888E-31
   0.9538058253071990E+00
  -0.3489748562316129E-31
   0.9520452717008205E+00
  -0.4171330874017188E-31
   0.9351035433474099E+00
  -0.1567348335016415E-31
   0.9565496449253622E+00
  -0.2962286668535099E-31
   0.9378638716756775E+00
  -0.1486939953633709E-32
   0.9303460519868463E+00
  -0.2936548176873832E-31
   0.9446467733333789E+00
   0.1257888806661368E-31
   0.8862352680534256E+00
   0.5292302000443879E-31
   0.9424046351261658E+00
   0.1081191112616300E-30
   0.9637013741731586E+00
  -0.3482002037665133E-31
   0.1008356272044944E+01
  -0.1320219048076687E-32
   0.1006712429709878E+01
   0.1297318090008247E-32
   0.1001958930205315E+01
  -0.1468366600865977E-32
   0.1003217522115537E+01
  -0.4892409030932183E-32
   0.1004120115973769E+01
  -0.6469113528904522E-32
   0.1005208064902655E+01
  -0.5564399479258087E-32
   0.1004249961603995E+01
  -0.1802699867576446E-32
   0.1008268330106259E+01
  -0.4612036135424141E-32
   0.1023869441005894E+01
   0.4401466680215577E-33
   0.1063755461250256E+01
   0.3369728210561311E-32
   0.1019394088224980E+01
   0.2549105377441366E-32
   0.1001777911845261E+01
  -0.2389864649661774E-32
   0.9645774231494957E+00
  -0.5007782486351322E-31
   0.1005263328272077E+01
  -0.4528993170933776E-32
   0.1000745736275087E+01
  -0.6736924911931355E-33
   0.1008696549289945E+01
  -0.3737980223252912E-32
   0.1008037948454513E+01
   0.1511580692991639E-32
   0.1002353862047817E+01
  -0.4724772455130566E-32
   0.9980195530495583E+00
  -0.2360602298665778E-32
   0.1000592769357703E+01
  -0.3289514875424288E-32
   0.1001620641860689E+01
  -0.4554855496163211E-32
   0.9828039326494121E+00
  -0.1135559702932721E-31
   0.9843899726746211E+00
  -0.8360029187203371E-32
   0.9834136048390912E+00
  -0.4733372431108603E-31
   0.9790327232203944E+00
  -0.3586502085004528E-31
   0.9904757376070010E+00
  -0.1230853165105661E-31
   0.9935193468940664E+00
  -0.2614894719199340E-32
   0.1002008894346863E+01
  -0.1286898880218199E-32
   0.1002132240744495E+01
  -0.1236464679683848E-32
   0.1002273087521133E+01
  -0.7100226276925566E-33
   0.1001793578297203E+01
  -0.5490855196907567E-33
   0.1009816088027810E+01
   0.1298053686434935E-32
   0.1006507955582137E+01
  -0.3875899868473190E-32
   0.9561125617151277E+00
  -0.3365993390179548E-31
   0.9252807406676105E+00
  -0.3956040021362639E-31
   0.1007053966729335E+01
   0.7701779220453651E-33
   0.1004490981234772E+01
   0.8722824490066764E-34
   0.9145128351552992E+00
  -0.4174570681249891E-31
   0.9091570307030398E+00
  -0.2042561487707246E-31
   0.8752463079641769E+00
  -0.1988129894319948E-31
   0.9767979597407774E+00
  -0.1298079775438416E-31
   0.1000541360241149E+01
  -0.2765355855822416E-32
   0.1005826549297304E+01
   0.3753687438722558E-33
   0.1012896701668311E+01
   0.1001362992411420E-32
   0.1011680292165990E+01
   0.7244242598661575E-33
   0.1010415973639726E+01
   0.1112843136453987E-33
   0.1005456587395487E+01
   0.3299927147764395E-33
   0.9909167515212798E+00
  -0.7162257115381834E-32
   0.1005149610920272E+01
  -0.1645884578107814E-32
   0.9860895085449171E+00
  -0.2084164778820772E-32
   0.1005593206447744E+01
  -0.1807825355469272E-32
   0.1004239922232602E+01
  -0.2052520607574423E-32
   0.1002885969213361E+01
  -0.1680771350573919E-32
   0.1003350063078460E+01
  -0.1850814597427234E-32
   0.1003997944127812E+01
  -0.2025733607413960E-32
   0.1005115344746928E+01
  -0.5167190537821840E-32
   0.1003223209693073E+01
  -0.5847642495633738E-32
   0.1002669123761885E+01
  -0.4083145039894279E-32
   0.1002589508054974E+01
  -0.4180590231544837E-32
   0.1004069040374428E+01
  -0.3733398051196865E-32
   0.1004304991187207E+01
  -0.4571198946789836E-32
   0.1001643157085843E+01
  -0.3316477201918018E-32
   0.1002279136440334E+01
  -0.3841457970720638E-32
   0.1002546782020501E+01
  -0.3711249651466799E-32
   0.1003472000595587E+01
  -0.5345476869606356E-32
   0.1003380240374745E+01
  -0.5306870075951404E-32
   0.1003233137295518E+01
  -0.2892386693739647E-32
   0.1004429899220272E+01
  -0.5442574677264648E-32
   0.1004324039413551E+01
  -0.5630343723301669E-32
   0.1003653018135797E+01
  -0.3701265965573514E-32
   0.1003718560687947E+01
  -0.5517762605705723E-32
   0.1004319243041978E+01
  -0.5867641045928595E-32
   0.1004462563047394E+01
  -0.6191704704243740E-32
   0.1003629396212332E+01
  -0.5732793437666317E-32
   0.1064485256925097E+01
  -0.6168873491609568E-32
   0.1028442061791069E+01
   0.2142382263890352E-32
   0.1009605873439086E+01
  -0.3222380007441222E-32
   0.1006626987278258E+01
  -0.3720443513580973E-32
   0.1163967546375648E+01
  -0.4691744704954802E-31
   0.1086026686831201E+01
  -0.2900713331640823E-32
   0.1007907087193442E+01
  -0.3542416082674100E-32
   0.1007251825931669E+01
  -0.3822307408018522E-32
   0.1006796456312482E+01
  -0.3647498289243096E-32
   0.1013053883282700E+01
  -0.2669903666479104E-32
   0.1019340792084218E+01
   0.3038530441171251E-32
   0.1235123173296761E+01
  -0.1137411829028634E-30
   0.1032535565187861E+01
   0.5374152023074669E-32
   0.1046565480922847E+01
   0.8897350387067338E-32
   0.1201701822065579E+01
  -0.2041248025680883E-31
   0.1014672138144501E+01
  -0.2586216300528467E-32
   0.1032297498308541E+01
   0.4148531559602377E-32
   0.1028222183338733E+01
   0.3282075286133859E-32
   0.1014640520410226E+01
  -0.1077374343540039E-32
   0.1028986926999341E+01
  -0.6003582651333410E-33
   0.1002003667365966E+01
  -0.2310346683924972E-32
   0.9608147831457482E+00
  -0.4501963319575343E-31
   0.1006858072237082E+01
  -0.3902831515776862E-32
   0.1001324898680459E+01
  -0.6150470393921285E-32
   0.1010798261832901E+01
  -0.1808667002605043E-32
   0.1012231336352149E+01
  -0.4506438058626405E-32
   0.1000939569587515E+01
  -0.4606092870178991E-32
   0.9979357843525256E+00
  -0.4919484581878718E-32
   0.9980690509294062E+00
  -0.4007942345065423E-32
   0.1001192040826550E+01
  -0.4325793841769366E-32
   0.9842100790524300E+00
  -0.2063385649774574E-31
   0.9815228436094001E+00
  -0.1482315510289365E-31
   0.9648740509475459E+00
  -0.4544621316432994E-31
   0.9680944437803173E+00
  -0.4916616531821195E-31
   0.9914084286456297E+00
  -0.1964540593668254E-31
   0.9910913083038574E+00
  -0.6075834772308901E-32
   0.9925587124656178E+00
  -0.5687696656539658E-32
   0.1001727549514230E+01
  -0.3481299507678877E-32
   0.9993245747401770E+00
  -0.3737737065466859E-32
   0.9941434371395462E+00
  -0.5613620727462831E-32
   0.1006982475141322E+01
   0.4508119333756632E-33
   0.1022613019618600E+01
   0.5287019105797827E-32
   0.1001120639139637E+01
  -0.2122940711000073E-31
   0.1008783935583389E+01
  -0.3685080454010819E-32
   0.1004774772921340E+01
  -0.4072051134062340E-32
   0.1009030410930872E+01
  -0.2869757155113653E-32
   0.9967211493815410E+00
  -0.5974089307665034E-32
   0.1005570715442229E+01
  -0.2353997790955287E-32
   0.1003324760114173E+01
  -0.5026552628025577E-32
   0.9949845984908270E+00
  -0.3836814975559724E-32
   0.9833501663083036E+00
  -0.8756224906550665E-32
   0.9944494689142624E+00
  -0.5033881905101783E-32
   0.9973474193053185E+00
  -0.3733713113596890E-32
   0.9932503760541449E+00
  -0.5536561435072245E-32
   0.1001311884906834E+01
  -0.4117497181776773E-32
   0.1003000708376206E+01
  -0.4469764518405472E-32
   0.1002188291593111E+01
  -0.4060306524228245E-32
   0.9947120026401650E+00
  -0.3102673713562308E-32
   0.9937832198057061E+00
  -0.3583557996754824E-32
   0.1004861704668892E+01
  -0.4838299752634412E-32
   0.1020101282070692E+01
  -0.6998556989674112E-32
   0.1005337229999309E+01
  -0.1030188644094538E-31
   0.9817045977666797E+00
  -0.1686943164002179E-31
   0.1004974596061812E+01
  -0.4655042187698681E-32
   0.1012374662656395E+01
  -0.2246194924208557E-32
   0.9873720328709659E+00
  -0.2688580032307815E-31
   0.9551284413725020E+00
  -0.1184411974458502E-32
   0.9865253756902110E+00
  -0.1926656606755850E-31
   0.9865916534802133E+00
  -0.1248923016842361E-31
   0.9920067167869593E+00
  -0.4788190534513083E-31
   0.9934435620808110E+00
  -0.2361984992857399E-31
   0.9960682553857634E+00
  -0.5866037925484560E-31
   0.1037400105928138E+01
  -0.1613050100977507E-31
   0.1033161102224295E+01
  -0.7995237093139113E-32
   0.1001442942589848E+01
  -0.2749511700095774E-32
   0.1001928635177597E+01
  -0.4777727549351169E-32
   0.9912313107685378E+00
  -0.3043420266972436E-32
   0.9911145322898063E+00
  -0.8045922543887327E-32
   0.9649433996998169E+00
  -0.1821598902232089E-31
   0.9933790316917630E+00
  -0.4469841902491084E-32
   0.1006090796374753E+01
  -0.4566684158079396E-33
   0.1001963018637760E+01
  -0.1176964971891689E-32
   0.9908628976459767E+00
  -0.6794531715892260E-32
   0.9742169955168826E+00
  -0.1689458633151378E-31
   0.9420656172337389E+00
  -0.3347032169509199E-31
   0.9821543954947076E+00
  -0.2440251757098270E-31
   0.9794783302235186E+00
  -0.1144631609972527E-31
   0.9704368616041267E+00
  -0.1548709859930918E-31
   0.9720887189878810E+00
  -0.3528336199758940E-31
   0.9557898414997541E+00
  -0.1215020782906612E-31
   0.9498086706711314E+00
  -0.3122557753818244E-31
   0.9529904616790301E+00
  -0.4051517420245077E-31
   0.1002635788495220E+01
  -0.3554145201859167E-32
   0.1002475631460716E+01
  -0.4746864120766426E-32
   0.1000513073316605E+01
  -0.3039991074579441E-32
   0.1001674838577961E+01
  -0.1517752672932952E-32
   0.9610035232182411E+00
  -0.3574722347269339E-31
   0.9492443247445819E+00
  -0.6631866395234872E-31
   0.9586632960130725E+00
  -0.3154410829322900E-31
   0.1001121360678566E+01
  -0.4384674914521127E-32
   0.1000501199843905E+01
  -0.3466182279962564E-32
   0.1001159801540510E+01
  -0.2027848401342391E-32
   0.9807420384794829E+00
  -0.1683753322217216E-31
   0.9805568735449619E+00
  -0.2124757813443873E-31
   0.9629217552733433E+00
  -0.2912348115194797E-31
SCALARS u double 1
LOOKUP_TABLE default
   0.0000000000000000E+00
   0.0000000000000000E+00
   0.0000000000000000E+00
   0.0000000000000000E+00
   0.0000000000000000E+00
   0.0000000000000000E+00
   0.0000000000000000E+00
   0.0000000000000000E+00
   0.0000000000000000E+00
   0.0000000000000000E+00
   0.0000000000000000E+00
   0.0000000000000000E+00
   0.0000000000000000E+00
   0.0000000000000000E+00
   0.0000000000000000E+00
   0.0000000000000000E+00
   0.0000000000000000E+00
   0.0000000000000000E+00
   0.0000000000000000E+00
   0.0000000000000000E+00
   0.0000000000000000E+00
   0.0000000000000000E+00
   0.0000000000000000E+00
   0.0000000000000000E+00
   0.0000000000000000E+00
   0.0000000000000000E+00
   0.0000000000000000E+00
   0.0000000000000000E+00
   0.0000000000000000E+00
   0.0000000000000000E+00
   0.0000000000000000E+00
   0.0000000000000000E+00
   0.0000000000000000E+00
   0.0000000000000000E+00
   0.0000000000000000E+00
   0.0000000000000000E+00
   0.0000000000000000E+00
   0.0000000000000000E+00
   0.0000000000000000E+00
   0.0000000000000000E+00
   0.0000000000000000E+00
   0.0000000000000000E+00
   0.0000000000000000E+00
   0.0000000000000000E+00
   0.0000000000000000E+00
   0.0000000000000000E+00
   0.0000000000000000E+00
   0.0000000000000000E+00
   0.0000000000000000E+00
   0.0000000000000000E+00
   0.0000000000000000E+00
   0.0000000000000000E+00
   0.0000000000000000E+00
   0.0000000000000000E+00
   0.0000000000000000E+00
   0.0000000000000000E+00
   0.0000000000000000E+00
   0.0000000000000000E+00
   0.0000000000000000E+00
   0.0000000000000000E+00
   0.0000000000000000E+00
   0.0000000000000000E+00
   0.0000000000000000E+00
   0.0000000000000000E+00
   0.0000000000000000E+00
   0.0000000000000000E+00
   0.4945973678192751E+00
  -0.2504829235241948E-31
   0.5336248050513243E+00
  -0.9236851730376263E-32
   0.5182740404555609E+00
  -0.3131483449360779E-32
   0.4930714246731556E+00
  -0.7165179882520427E-34
   0.4847754205069152E+00
   0.8344630987411799E-32
   0.4868132653368421E+00
   0.1285698876175232E-31
   0.4891430744281522E+00
   0.1140475662999084E-31
   0.4958009013999652E+00
   0.1942068248357541E-32
   0.4899007394802738E+00
   0.6904916737009478E-32
   0.4718072596334894E+00
   0.2271036804290361E-33
   0.4448872821972507E+00
  -0.4956103621101618E-32
   0.4844369958684861E+00
   0.5356577074397374E-31
   0.5097703333340570E+00
  -0.6426189916426459E-33
   0.4401859475311273E+00
   0.9160613317279001E-31
   0.4949587097188874E+00
   0.5818838759579912E-32
   0.5223003573209617E+00
  -0.5215053814419603E-32
   0.4962747030736158E+00
   0.2729569511857497E-32
   0.5223832221991106E+00
  -0.1083581751456509E-31
   0.5038168244758501E+00
   0.3053100861148982E-32
   0.5644336963923411E+00
  -0.3176430942049320E-32
   0.5245894641994380E+00
  -0.3418081111470186E-32
   0.4990985097736298E+00
   0.3634257714361584E-32
   0.5729201586902891E+00
   0.1632419739397658E-31
   0.5693592828693925E+00
  -0.6388170619811503E-33
   0.3752192377624566E+00
   0.9373934444451168E-31
   0.4003638955707778E+00
   0.6331490707679596E-31
   0.5599389981226928E+00
   0.3108858722875711E-31
   0.5562259014215840E+00
  -0.1472839320394345E-32
   0.4942640825316923E+00
  -0.1222787773579027E-32
   0.4948651958955075E+00
  -0.2349173390027553E-32
   0.4925619071368211E+00
  -0.3794230703708620E-32
   0.4913967782807039E+00
  -0.2316317205272737E-32
   0.5162597182184160E+00
  -0.6606830990580374E-33
   0.5363670730383678E+00
   0.5455266760893609E-32
   0.4951374106576985E+00
  -0.4948570919548957E-32
   0.4520512890331438E+00
  -0.3405761287651748E-31
   0.5129007652647543E+00
  -0.1329507138166729E-32
   0.5117699763445800E+00
  -0.2587057284925734E-32
   0.4786317418659548E+00
  -0.1180539022965060E-31
   0.4931122297850037E+00
  -0.3456660405443327E-31
   0.4600270411490607E+00
  -0.7818836365204364E-31
   0.5242595707294465E+00
  -0.2535997455447057E-31
   0.5299947205782719E+00
  -0.3418880542278586E-32
   0.5129700677652702E+00
  -0.4540292825699277E-32
   0.5328928660743241E+00
   0.1345097616603351E-32
   0.5309782654292696E+00
   0.3326784814357241E-32
   0.5309767611424646E+00
  -0.2767224483375599E-32
   0.5063651340503672E+00
  -0.4150532168734975E-32
   0.5279536185345541E+00
  -0.1519666599418173E-31
   0.5409238855073418E+00
  -0.4821857932909404E-32
   0.5363719066788012E+00
  -0.1521202303110732E-31
   0.5374201319951156E+00
  -0.6352637726435133E-32
   0.4965358979110440E+00
   0.7786763258728112E-33
   0.4975364856908050E+00
   0.6560542187334358E-33
   0.4963815197052243E+00
   0.2131812754994095E-32
   0.4955155009819210E+00
   0.1995631031738545E-32
   0.4904172548498092E+00
   0.9747507025426727E-32
   0.4902500217795185E+00
   0.1083628038099207E-31
   0.4861611309726969E+00
   0.5924017141616858E-32
   0.4854067564178020E+00
   0.5624927658001903E-32
   0.4931955989645609E+00
   0.7482049804292192E-32
   0.4910329667939719E+00
   0.9829446132830800E-32
   0.4831677513609207E+00
   0.2548206511835989E-32
   0.4872468806484664E+00
   0.3596783264637262E-32
   0.4880024273792161E+00
   0.3472703706152625E-32
   0.4872312392880548E+00
   0.8902589680226547E-32
   0.4882163845925026E+00
   0.1067925974248571E-31
   0.4952576817170780E+00
   0.6042559206227411E-32
   0.4900721164411455E+00
   0.1213855369666361E-31
   0.4903599279046207E+00
   0.1135215444928404E-31
   0.4944353026095840E+00
   0.8087373028296047E-32
   0.4868191758702977E+00
   0.1037965003665044E-31
   0.4892735512144804E+00
   0.1174742200633519E-31
   0.4881467930726962E+00
   0.1259425514059171E-31
   0.4878252396081321E+00
   0.1050169736069230E-31
   0.4449106780027986E+00
  -0.4106865087716930E-32
   0.4700132875184967E+00
  -0.1581892025209360E-32
   0.4891774917471610E+00
   0.3421855522280947E-32
   0.4885974634682716E+00
   0.8942147614971459E-32
   0.4510294628034520E+00
   0.3546074956230900E-31
   0.4681803399583772E+00
  -0.1277131499783216E-31
   0.4876666907156792E+00
   0.5616064939466180E-32
   0.4868262750090978E+00
   0.8284803544792680E-32
   0.4909268404136969E+00
   0.6382839309201340E-32
   0.4793945543460255E+00
   0.6164714038379745E-32
   0.4657906777213828E+00
  -0.3733537107740335E-32
   0.3794391075096516E+00
   0.3591395937843245E-31
   0.4903637343848400E+00
  -0.4087918844376365E-31
   0.4487969161866999E+00
  -0.1380697374576272E-31
   0.4432386725517382E+00
   0.1236230127035479E-31
   0.4845716407443450E+00
   0.3620966516912440E-32
   0.4621867851108236E+00
  -0.6554410382086178E-32
   0.4663606659234875E+00
  -0.3098489766735276E-31
   0.4747787029547967E+00
   0.2523104931522501E-32
   0.4893811124179818E+00
   0.5096341486856633E-31
   0.5085638676813710E+00
  -0.3638397143836503E-33
   0.4305372591507566E+00
   0.4073420037677149E-31
   0.4927298036614656E+00
   0.4985705779005169E-32
   0.5320327256123909E+00
  -0.5116825082799461E-32
   0.4913855406343026E+00
   0.9644274824061927E-33
   0.5209473688353892E+00
  -0.2235583209577328E-32
   0.5061309364999826E+00
   0.1672406274722982E-32
   0.5690650993919020E+00
   0.1122597436234481E-31
   0.5274990552036586E+00
   0.4059359829698173E-33
   0.5015024129571821E+00
   0.3365585922955578E-32
   0.5821782454631251E+00
   0.3581008170283970E-31
   0.5691769250212109E+00
   0.1983272896922803E-31
   0.3403300368287311E+00
   0.1004088410566927E-30
   0.3786151439693278E+00
  -0.1186138850405120E-31
   0.5753346481750995E+00
   0.5551210736178122E-31
   0.5668543263573894E+00
   0.9988071572869984E-32
   0.5703059562536268E+00
  -0.4924338389903309E-32
   0.5291879205953228E+00
  -0.8599422929993490E-32
   0.5449837175767421E+00
  -0.1358203269017873E-31
   0.5719102639589700E+00
   0.7506933489723555E-32
   0.5385667386742128E+00
  -0.2199660891788514E-31
   0.5475905556229906E+00
   0.2252602991635369E-31
   0.5821515963413854E+00
   0.3436940404604299E-31
   0.4925318968536219E+00
  -0.6088729019269402E-32
   0.5041571115926076E+00
   0.1075816310992124E-32
   0.4961293265019190E+00
  -0.2294776493548402E-32
   0.5562736233265475E+00
   0.4200941363264322E-32
   0.4757837005646428E+00
  -0.3959292140833576E-31
   0.4950183184506474E+00
   0.6361811820340567E-32
   0.5496188055878128E+00
  -0.7029316436287051E-32
   0.5889517159317502E+00
   0.2028614299335887E-31
   0.5839552612739283E+00
   0.1370331147035299E-32
   0.5468175663611118E+00
  -0.4319130902353121E-32
   0.5803880219192155E+00
   0.9789053889061442E-33
   0.5106065646599299E+00
  -0.1881479055575095E-32
   0.5029552653040470E+00
   0.7252677027010280E-33
   0.5033112976890824E+00
   0.1002294883798715E-32
   0.5676222186353566E+00
   0.1966978278368222E-32
   0.5564619505294753E+00
  -0.1970106838282588E-32
   0.4947144959330541E+00
   0.2845423769649863E-32
   0.5506785365921165E+00
  -0.1676775483403094E-31
   0.5513581031285154E+00