title="tecplot geometry and solution file"
variables = x y z rho u v w p mach temperature
zone t="boundary 1 bc-1", solutiontime= 0.4000000E+02, strandid=1001, i=32, j=46, f=feblock
 -0.547468544169E-02 -0.120297262841E-18 -0.567606031243E-02 -0.120297262841E-18 -0.120297262841E-18 -0.120297262841E-18 -0.525159244851E-02
 -0.425776897977E-02 -0.120297262841E-18 -0.120297262841E-18 -0.120297262841E-18 -0.120297262841E-18 -0.120297262841E-18 -0.120297262841E-18
 -0.120297262841E-18 -0.120297262841E-18 -0.338395986572E-02 -0.120297262841E-18 -0.120297262841E-18 -0.120297262841E-18 -0.120297262841E-18
 -0.120297262841E-18 -0.120297262841E-18 -0.120297262841E-18 -0.120297262841E-18 -0.120297262841E-18 -0.120297262841E-18 -0.120297262841E-18
 -0.120297262841E-18 -0.120297262841E-18 -0.120297262841E-18 -0.120297262841E-18
  0.250494197117E+01  0.250494197117E+01  0.127822156907E+01  0.146289271009E+01  0.157686156160E+01  0.308372018325E+00  0.261948602442E-01
 -0.122573481164E+01 -0.600232012419E+00  0.250494197117E+01  0.477386199275E+00  0.742988685424E+00 -0.739814786992E+00  0.177790177481E+01
  0.155830813274E+01  0.250494197117E+01 -0.249658903664E+01 -0.154800130438E+01 -0.487811078581E+00  0.250494197117E+01  0.627766083140E+00
 -0.345533899378E+00 -0.178862290564E+01 -0.158811787973E+01  0.125000000000E+01 -0.249658903664E+01 -0.144524380962E+01 -0.120297262841E-18
 -0.125000000000E+01 -0.249658903664E+01 -0.249658903664E+01 -0.249658903664E+01
  0.803813859867E-04  0.125000000000E+01  0.822460170215E-04  0.103724302461E+01  0.219251206392E+01  0.922061490191E+00  0.103872438719E-03
  0.341545874230E-04  0.715990576545E+00  0.250000000000E+01  0.202479342020E+01  0.324151231464E+01  0.175434191980E+01  0.310152362409E+01
  0.404200324774E+01  0.375000000000E+01  0.810725962649E-04  0.930412228790E+00  0.299062775774E+01  0.500000000000E+01  0.429310310915E+01
  0.409252726285E+01  0.187029682677E+01  0.284428995242E+01  0.500000000000E+01  0.125000000000E+01  0.394624082883E+01  0.500000000000E+01
  0.500000000000E+01  0.250000000000E+01  0.375000000000E+01  0.500000000000E+01
  0.134610832017E+01  0.106375545802E+01  0.142661175097E+01  0.108602668298E+01  0.103229749525E+01  0.120170182425E+01  0.164672969314E+01
  0.149542069035E+01  0.123512317258E+01  0.102386944026E+01  0.102822217998E+01  0.101305388198E+01  0.103253556561E+01  0.101467213588E+01
  0.100662698693E+01  0.100826832672E+01  0.144847545625E+01  0.116396754139E+01  0.101464051687E+01  0.100424996067E+01  0.100679645775E+01
  0.100725182631E+01  0.104656547669E+01  0.101934078677E+01  0.100423992184E+01  0.106448526673E+01  0.100790708436E+01  0.100288597395E+01
  0.100335006437E+01  0.102844205832E+01  0.100960587202E+01  0.100399795109E+01
  0.000000000000E+00  0.444887286597E+00  0.000000000000E+00  0.468180338056E+00  0.462186787693E+00  0.443238673522E+00  0.000000000000E+00
  0.000000000000E+00  0.379439109240E+00  0.471807259159E+00  0.466360673961E+00  0.479394557928E+00  0.490363729654E+00  0.484571642878E+00
  0.488597452617E+00  0.489900751186E+00  0.000000000000E+00  0.451029480257E+00  0.474778710326E+00  0.495800888963E+00  0.490926828825E+00
  0.486826270921E+00  0.448796920291E+00  0.465790689837E+00  0.496535899178E+00  0.444910654017E+00  0.487666682129E+00  0.497536481718E+00
  0.496381515597E+00  0.470013292301E+00  0.489177494337E+00  0.495515503850E+00
  0.000000000000E+00  0.000000000000E+00  0.000000000000E+00  0.182111793112E-01 -0.276667324595E-02  0.330008519945E-01  0.000000000000E+00
  0.000000000000E+00 -0.635883636046E-02  0.000000000000E+00  0.362941177182E-02 -0.561333103266E-02 -0.432753185500E-02  0.439715727226E-04
 -0.103548086349E-02  0.000000000000E+00  0.000000000000E+00 -0.779174687794E-02  0.391748493518E-03  0.000000000000E+00 -0.202832106438E-02
 -0.137700174743E-02  0.151652573956E-02 -0.162048233157E-02 -0.665416990700E-04  0.000000000000E+00 -0.290733295506E-04 -0.202434754270E-03
  0.805362924653E-03  0.000000000000E+00  0.000000000000E+00  0.000000000000E+00
  0.000000000000E+00  0.453283727726E-01  0.000000000000E+00  0.123658721167E+00  0.245692504326E-01  0.166125821544E+00  0.000000000000E+00
  0.000000000000E+00  0.155960000545E+00  0.352702539525E-02  0.259078638394E-01 -0.647805298357E-02  0.752820964149E-01  0.371569939838E-02
 -0.127527295318E-03  0.471449383737E-03  0.000000000000E+00  0.141096927713E+00 -0.806996234515E-02  0.236433157117E-02 -0.280381827106E-03
 -0.438302999412E-02  0.256769956575E-01 -0.189364001131E-02  0.307401244747E-02  0.838611996481E-01 -0.122860306238E-02  0.268490281751E-02
  0.264424875035E-02  0.283393200889E-02 -0.846591580583E-03  0.345684377943E-02
  0.961496616718E+00  0.782491125813E+00  0.101899898057E+01  0.808635916905E+00  0.746113329282E+00  0.879959780181E+00  0.117622540365E+01
  0.106814927343E+01  0.916484221717E+00  0.737375269509E+00  0.743650978608E+00  0.725792791981E+00  0.757479364740E+00  0.729144501866E+00
  0.720777568251E+00  0.722747149600E+00  0.103461779816E+01  0.858092896378E+00  0.728072572015E+00  0.718602762701E+00  0.721012356820E+00
  0.721154300890E+00  0.759934138462E+00  0.732618491387E+00  0.718521956106E+00  0.790948760904E+00  0.722118114880E+00  0.717197483531E+00
  0.717641998732E+00  0.741773495607E+00  0.724071786969E+00  0.718406376172E+00
  0.000000000000E+00  0.440666218317E+00  0.000000000000E+00  0.474617249197E+00  0.460123129066E+00  0.468636776287E+00  0.000000000000E+00
  0.000000000000E+00  0.402549873799E+00  0.469884091678E+00  0.464193486198E+00  0.478749618833E+00  0.489549461180E+00  0.483128671423E+00
  0.488002249764E+00  0.489034115734E+00  0.000000000000E+00  0.465240579759E+00  0.473760510547E+00  0.495364285334E+00  0.490293360274E+00
  0.486277594201E+00  0.445854524717E+00  0.464358891522E+00  0.496127934820E+00  0.443900324438E+00  0.486930048114E+00  0.497248718492E+00
  0.496055917094E+00  0.467744053849E+00  0.488189260996E+00  0.495091102597E+00
  0.999990300362E+00  0.102983027526E+01  0.999990762612E+00  0.104241479644E+01  0.101187755061E+01  0.102516586677E+01  0.999991420552E+00
  0.999992171067E+00  0.103882587493E+01  0.100825880403E+01  0.101253541338E+01  0.100301664783E+01  0.102705528599E+01  0.100604152466E+01
  0.100244540297E+01  0.100354834385E+01  0.999992724186E+00  0.103209927443E+01  0.100459382794E+01  0.100178631535E+01  0.100260314961E+01
  0.100234717364E+01  0.101657069485E+01  0.100620508986E+01  0.100168367805E+01  0.104024762003E+01  0.100303428414E+01  0.100118707712E+01
  0.100134423060E+01  0.100976315141E+01  0.100405567147E+01  0.100176392347E+01
        12        19        11        11
        11         5        12        12
        10        14         5         5
        19        13        11        11
        19        24        13        13
        30        23        24        24
        19        12        22        22
        28        22        21        21
        11        13         6         6
         7         6         9         9
        15        12        14        14
        18        13        23        23
        15        25        21        21
        27        19        22        22
        18         8         9         9
        27        31        24        24
         4        11         6         6
         5        14        12        12
         4         2         5         5
        21        12        15        15
        14        16        15        15
        24        19        27        27
        22        29        27        27
        23        26        18        18
        17         8        18        18
         5        11         4         4
         6         3         4         4
        26        23        30        30
         5         2        10        10
        16        14        10        10
         3         6         7         7
        21        25        28        28
        29        22        28        28
         6        13         9         9
         2         4         1         1
        31        27        32        32
        25        15        20        20
        24        23        13        13
         8         7         9         9
        13        18         9         9
        31        30        24        24
        12        21        22        22
        29        32        27        27
         3         1         4         4
        26        17        18        18
        16        20        15        15
zone t="boundary 2 bc-2", solutiontime= 0.4000000E+02, strandid=1002, i=33, j=48, f=feblock
  0.500195253374E+01  0.375034811161E+01  0.249861146299E+01  0.288036674177E+01  0.124717526933E+01  0.190856698521E+01  0.326577190273E+01
  0.201394856120E+01 -0.338395986572E-02  0.962374249381E+00  0.500000000000E+01  0.403430190008E+01  0.423029563807E+01  0.500000000000E+01
  0.385439188940E+01  0.500000000000E+01  0.398133433176E+01  0.315200081417E+01  0.266958028869E+01  0.154798029824E+01  0.218327860466E+01
  0.893688440338E+00 -0.120297262841E-18  0.699009761768E+00  0.964460899052E+00  0.310303671659E+01 -0.120297262841E-18 -0.120297262841E-18
  0.125000000000E+01  0.500000000000E+01  0.375000000000E+01  0.250000000000E+01 -0.120297262841E-18
 -0.249658903664E+01 -0.249658903664E+01 -0.249658903664E+01 -0.249658903664E+01 -0.249658903664E+01 -0.249658903664E+01 -0.249658903664E+01
 -0.249658903664E+01 -0.249658903664E+01 -0.249658903664E+01 -0.249658903664E+01 -0.249658903664E+01 -0.249658903664E+01 -0.249658903664E+01
 -0.249658903664E+01 -0.249658903664E+01 -0.249658903664E+01 -0.249658903664E+01 -0.249658903664E+01 -0.249658903664E+01 -0.249658903664E+01
 -0.249658903664E+01 -0.249658903664E+01 -0.249658903664E+01 -0.249658903664E+01 -0.249658903664E+01 -0.249658903664E+01 -0.249658903664E+01
 -0.249658903664E+01 -0.249658903664E+01 -0.249658903664E+01 -0.249658903664E+01 -0.249658903664E+01
  0.108225889030E-03  0.145875369682E-03  0.100893326425E-03  0.901663374396E+00  0.110858761917E-03  0.714928318829E+00  0.188140648011E+01
  0.175892165504E+01  0.810725962649E-04  0.957504300331E+00  0.125000000000E+01  0.100596698996E+01  0.191313519089E+01  0.250000000000E+01
  0.292898096716E+01  0.375000000000E+01  0.406883369524E+01  0.363389289944E+01  0.284756860985E+01  0.292582308120E+01  0.395754054931E+01
  0.205027256979E+01  0.125000000000E+01  0.306703272692E+01  0.397155766662E+01  0.433068622168E+01  0.250000000000E+01  0.375000000000E+01
  0.500000000000E+01  0.500000000000E+01  0.500000000000E+01  0.500000000000E+01  0.500000000000E+01
  0.831048952467E+00  0.935354828964E+00  0.934389726283E+00  0.968094446020E+00  0.961616790316E+00  0.964874057962E+00  0.984210083616E+00
  0.991408428384E+00  0.144847545625E+01  0.102898692456E+01  0.956112582112E+00  0.960814812272E+00  0.981522848437E+00  0.100650793579E+01
  0.997935775648E+00  0.100981613857E+01  0.100200369985E+01  0.998069032357E+00  0.991091310306E+00  0.100132489831E+01  0.100093956241E+01
  0.101223133478E+01  0.106448526673E+01  0.101079825614E+01  0.100685806729E+01  0.100119202556E+01  0.102844205832E+01  0.100960587202E+01
  0.100511534023E+01  0.100179357012E+01  0.100266908184E+01  0.100322320940E+01  0.100399795109E+01
  0.000000000000E+00  0.000000000000E+00  0.000000000000E+00  0.378615141695E+00  0.000000000000E+00  0.340330039150E+00  0.582178245032E+00
  0.575334650293E+00  0.000000000000E+00  0.489381113132E+00  0.495137382357E+00  0.430537266667E+00  0.569176908935E+00  0.536367083229E+00
  0.569065094210E+00  0.516259724760E+00  0.508563992020E+00  0.527499088523E+00  0.566854333959E+00  0.532032737638E+00  0.506130952937E+00
  0.520947366573E+00  0.444910654017E+00  0.491385550032E+00  0.492729807831E+00  0.501502456324E+00  0.470013292301E+00  0.489177494337E+00
  0.490417226419E+00  0.491396789588E+00  0.486161128341E+00  0.490250013500E+00  0.495515503850E+00
  0.000000000000E+00  0.000000000000E+00  0.000000000000E+00  0.000000000000E+00  0.000000000000E+00  0.000000000000E+00  0.000000000000E+00
  0.000000000000E+00  0.000000000000E+00  0.000000000000E+00  0.000000000000E+00  0.000000000000E+00  0.000000000000E+00  0.000000000000E+00
  0.000000000000E+00  0.000000000000E+00  0.000000000000E+00  0.000000000000E+00  0.000000000000E+00  0.000000000000E+00  0.000000000000E+00
  0.000000000000E+00  0.000000000000E+00  0.000000000000E+00  0.000000000000E+00  0.000000000000E+00  0.000000000000E+00  0.000000000000E+00
  0.000000000000E+00  0.000000000000E+00  0.000000000000E+00  0.000000000000E+00  0.000000000000E+00
  0.000000000000E+00  0.000000000000E+00  0.000000000000E+00 -0.232905593039E-02  0.000000000000E+00  0.182353617708E-01  0.121236145635E-01
  0.453891511071E-01  0.000000000000E+00  0.867493104713E-01 -0.992592157194E-01 -0.210121367832E-01 -0.304696994428E-01 -0.412644345024E-01
 -0.132001216385E-02  0.269959900416E-02  0.637166294327E-03  0.535288775427E-03  0.151134228519E-01  0.283971486105E-01  0.565021375428E-02
  0.553958420393E-01  0.838611996481E-01  0.110560475284E-01  0.679114335620E-02 -0.740718574335E-03  0.283393200889E-02 -0.846591580583E-03
  0.399772692487E-02  0.605671937057E-02 -0.135634980558E-03  0.119911116493E-02  0.345684377943E-02
  0.593602529342E+00  0.668106376969E+00  0.667416924349E+00  0.684291428880E+00  0.686864423368E+00  0.679258572093E+00  0.695864188370E+00
  0.702291797142E+00  0.103461779816E+01  0.723389826902E+00  0.672789516336E+00  0.675870606448E+00  0.694123987971E+00  0.721038057628E+00
  0.712711433106E+00  0.724812452790E+00  0.716595363492E+00  0.713312870156E+00  0.706427911960E+00  0.717741414506E+00  0.715380852668E+00
  0.730906769191E+00  0.790948760904E+00  0.724365788751E+00  0.721017443514E+00  0.715471797123E+00  0.741773495607E+00  0.724071786969E+00
  0.719322139048E+00  0.715894727510E+00  0.716614351004E+00  0.717376644259E+00  0.718406376172E+00
  0.000000000000E+00  0.000000000000E+00  0.000000000000E+00  0.380610260362E+00  0.000000000000E+00  0.343302168152E+00  0.585285499813E+00
  0.579523876982E+00  0.000000000000E+00  0.500979747872E+00  0.508782785113E+00  0.434361574936E+00  0.572843962154E+00  0.537166662444E+00
  0.569106480639E+00  0.515013360599E+00  0.508252584955E+00  0.527349064198E+00  0.567655262657E+00  0.531857867798E+00  0.506012460952E+00
  0.521051127525E+00  0.443900324438E+00  0.490706194566E+00  0.492149791166E+00  0.501385709699E+00  0.467744053849E+00  0.488189260996E+00
  0.489961961995E+00  0.491321558875E+00  0.486017930054E+00  0.489981930456E+00  0.495091102597E+00
  0.999993488485E+00  0.999993690942E+00  0.999993544242E+00  0.989581134744E+00  0.999993139053E+00  0.985581478829E+00  0.989839344197E+00
  0.991729026958E+00  0.999992724186E+00  0.984216352502E+00  0.985140600064E+00  0.984808765375E+00  0.990067204963E+00  0.100292630071E+01
  0.999859941588E+00  0.100487345681E+01  0.100122734980E+01  0.100057008668E+01  0.997888959837E+00  0.100350843368E+01  0.100059307410E+01
  0.101090476229E+01  0.104024762003E+01  0.100327844660E+01  0.100254887328E+01  0.100046793262E+01  0.100976315141E+01  0.100405567147E+01
  0.100192580330E+01  0.100045822653E+01  0.100058943631E+01  0.100110054527E+01  0.100176392347E+01
        15         7        19        19
         8        20        19        19
        18        19        21        21
         7         4         8         8
         3         6         4         4
        19         7         8         8
        19        18        15        15
        14        13        15        15
         8        22        20        20
        27        24        22        22
        19        20        21        21
        32        26        21        21
        17        18        26        26
        17        16        15        15
        25        29        21        21
        12         7        13        13
        10         8         6         6
        25        20        24        24
         4         6         8         8
        12         2         4         4
        10        23        22        22
        26        31        17        17
        30        16        17        17
         4         7        12        12
        13        11        12        12
        21        20        25        25
        24        28        25        25
        22         8        10        10
         6         5        10        10
        31        26        32        32
         4         2         3         3
         5         6         3         3
        11        13        14        14
        22        23        27        27
        28        24        27        27
        15        13         7         7
         2        12         1         1
        29        25        33        33
        23        10         9         9
        21        26        18        18
        16        14        15        15
        18        17        15        15
        29        32        21        21
        22        24        20        20
        28        33        25        25
        11         1        12        12
        31        30        17        17
         5         9        10        10
zone t="boundary 3 bc-3", solutiontime= 0.4000000E+02, strandid=1003, i=33, j=48, f=feblock
  0.375059096892E+01  0.249769609313E+01  0.500322133174E+01  0.403612218725E+01  0.287976772365E+01  0.124541910518E+01  0.190552237404E+01
  0.500000000000E+01  0.326671104552E+01  0.423253755448E+01  0.201271136506E+01 -0.547468544169E-02  0.958895643487E+00  0.500000000000E+01
  0.266968147299E+01  0.385584487271E+01  0.890374214836E+00  0.154654013699E+01 -0.120297262841E-18  0.500000000000E+01  0.315261136744E+01
  0.218304199515E+01  0.398195307895E+01 -0.120297262841E-18  0.697379952124E+00  0.963757277315E+00  0.125000000000E+01 -0.120297262841E-18
  0.500000000000E+01  0.310330738524E+01  0.250000000000E+01  0.375000000000E+01 -0.120297262841E-18
  0.250494197117E+01  0.250494197117E+01  0.250494197117E+01  0.250494197117E+01  0.250494197117E+01  0.250494197117E+01  0.250494197117E+01
  0.250494197117E+01  0.250494197117E+01  0.250494197117E+01  0.250494197117E+01  0.250494197117E+01  0.250494197117E+01  0.250494197117E+01
  0.250494197117E+01  0.250494197117E+01  0.250494197117E+01  0.250494197117E+01  0.250494197117E+01  0.250494197117E+01  0.250494197117E+01
  0.250494197117E+01  0.250494197117E+01  0.250494197117E+01  0.250494197117E+01  0.250494197117E+01  0.250494197117E+01  0.250494197117E+01
  0.250494197117E+01  0.250494197117E+01  0.250494197117E+01  0.250494197117E+01  0.250494197117E+01
  0.135649900494E-03  0.110129816467E-03  0.966887303890E-04  0.101756752009E+01  0.908094589218E+00  0.103942505801E-03  0.722629083213E+00
  0.125000000000E+01  0.188965661746E+01  0.191862696980E+01  0.176708239098E+01  0.803813859867E-04  0.969652551954E+00  0.250000000000E+01
  0.285339433501E+01  0.293325058812E+01  0.205656223819E+01  0.293157016932E+01  0.125000000000E+01  0.375000000000E+01  0.363766838842E+01
  0.396069444983E+01  0.407056385475E+01  0.250000000000E+01  0.307031995245E+01  0.397359820314E+01  0.500000000000E+01  0.375000000000E+01
  0.500000000000E+01  0.433260781310E+01  0.500000000000E+01  0.500000000000E+01  0.500000000000E+01
  0.942172450187E+00  0.946117211970E+00  0.843607715870E+00  0.964577725317E+00  0.979032802837E+00  0.957203997309E+00  0.983413598154E+00
  0.963701610949E+00  0.982803914272E+00  0.984390015619E+00  0.990475726726E+00  0.134610832017E+01  0.101939409124E+01  0.100835624968E+01
  0.993519343534E+00  0.998019543128E+00  0.100803794757E+01  0.100074573366E+01  0.106375545802E+01  0.100671242414E+01  0.100059276872E+01
  0.100235385897E+01  0.100177792929E+01  0.102386944026E+01  0.100869654741E+01  0.100526332636E+01  0.100520805686E+01  0.100826832672E+01
  0.100195898201E+01  0.100162062945E+01  0.100412009348E+01  0.100321752572E+01  0.100424996067E+01
  0.000000000000E+00  0.000000000000E+00  0.000000000000E+00  0.440185894545E+00  0.400363877512E+00  0.000000000000E+00  0.375219232119E+00
  0.494597094380E+00  0.572920162956E+00  0.569359257793E+00  0.559939006463E+00  0.000000000000E+00  0.484436994239E+00  0.533624826267E+00
  0.556225907318E+00  0.564433683939E+00  0.522383224943E+00  0.522300364631E+00  0.444887286597E+00  0.518273984557E+00  0.524589442235E+00
  0.503816806137E+00  0.509770277831E+00  0.471807259159E+00  0.496274709200E+00  0.494958706400E+00  0.489143081473E+00  0.489900751186E+00
  0.493071554919E+00  0.499098476464E+00  0.486813310890E+00  0.484775685151E+00  0.495800888963E+00
  0.000000000000E+00  0.000000000000E+00  0.000000000000E+00  0.000000000000E+00  0.000000000000E+00  0.000000000000E+00  0.000000000000E+00
  0.000000000000E+00  0.000000000000E+00  0.000000000000E+00  0.000000000000E+00  0.000000000000E+00  0.000000000000E+00  0.000000000000E+00
  0.000000000000E+00  0.000000000000E+00  0.000000000000E+00  0.000000000000E+00  0.000000000000E+00  0.000000000000E+00  0.000000000000E+00
  0.000000000000E+00  0.000000000000E+00  0.000000000000E+00  0.000000000000E+00  0.000000000000E+00  0.000000000000E+00  0.000000000000E+00
  0.000000000000E+00  0.000000000000E+00  0.000000000000E+00  0.000000000000E+00  0.000000000000E+00
  0.000000000000E+00  0.000000000000E+00  0.000000000000E+00 -0.226594357875E-01  0.112193936119E-01  0.000000000000E+00  0.181895733224E-01
 -0.100732259872E+00  0.385287994761E-02 -0.389416673169E-01  0.339611289141E-01  0.000000000000E+00  0.656427702457E-01 -0.424641828526E-01
  0.838411054862E-02 -0.653602490586E-02  0.487155295032E-01  0.134268360510E-01  0.453283727726E-01  0.711321421639E-03 -0.736109915873E-03
  0.238397735517E-02  0.837588281358E-03  0.352702539525E-02  0.103006242357E-01  0.427267874486E-02  0.337245633186E-02  0.471449383737E-03
  0.570391828845E-02  0.306017009121E-03  0.160645852749E-02  0.567736563051E-03  0.236433157117E-02
  0.672973151339E+00  0.675790855154E+00  0.602570692746E+00  0.676155663491E+00  0.691393383365E+00  0.683710189537E+00  0.689988521984E+00
  0.677396046611E+00  0.695267866375E+00  0.696328697244E+00  0.703514408147E+00  0.961496616718E+00  0.719946046757E+00  0.722885112811E+00
  0.709495716328E+00  0.713707852586E+00  0.726005213699E+00  0.716614511485E+00  0.782491125813E+00  0.722258489363E+00  0.716132747661E+00
  0.716553863595E+00  0.716542447275E+00  0.737375269509E+00  0.722640583168E+00  0.719421878655E+00  0.719547972179E+00  0.722747149600E+00
  0.716025346915E+00  0.715847808066E+00  0.718137391880E+00  0.717062195244E+00  0.718602762701E+00
  0.000000000000E+00  0.000000000000E+00  0.000000000000E+00  0.444930344600E+00  0.402807304284E+00  0.000000000000E+00  0.379033808716E+00
  0.508818484132E+00  0.575701378219E+00  0.573472054081E+00  0.562547834757E+00  0.000000000000E+00  0.491637802239E+00  0.534336829520E+00
  0.556352188316E+00  0.564140535617E+00  0.522485308907E+00  0.521817742085E+00  0.440666218317E+00  0.517132922309E+00  0.524068273268E+00
  0.503616101556E+00  0.509419830508E+00  0.469884091678E+00  0.495645020554E+00  0.494503340693E+00  0.488630219976E+00  0.489034115734E+00
  0.492987334104E+00  0.498957538518E+00  0.486507847865E+00  0.484614328712E+00  0.495364285334E+00
  0.999989345567E+00  0.999989414891E+00  0.999989632591E+00  0.981380664348E+00  0.988680597736E+00  0.999989832933E+00  0.982276361229E+00
  0.984074795020E+00  0.990406121496E+00  0.990319040903E+00  0.994391023253E+00  0.999990300362E+00  0.988748585189E+00  0.100365238799E+01
  0.999773189444E+00  0.100117377510E+01  0.100830261562E+01  0.100251270861E+01  0.102983027526E+01  0.100441979344E+01  0.100199189727E+01
  0.100081962079E+01  0.100137904505E+01  0.100825880403E+01  0.100297440200E+01  0.100191721284E+01  0.100214791771E+01  0.100354834385E+01
  0.100047557203E+01  0.100056538556E+01  0.100126703485E+01  0.100066740024E+01  0.100178631535E+01
        15         9        16        16
        15        18        11        11
        22        15        21        21
        11         5         9         9
         5         7         2         2
        11         9        15        15
        16        21        15        15
        16        10        14        14
        18        17        11        11
        17        25        24        24
        22        18        15        15
        22        30        31        31
        30        21        23        23
        16        20        23        23
        22        27        26        26
        10         9         4         4
         7        11        13        13
        25        18        26        26
        11         7         5         5
         5         1         4         4
        17        19        13        13
        23        32        30        30
        23        20        29        29
         4         9         5         5
         4         8        10        10
        26        18        22        22
        26        28        25        25
        13        11        17        17
        13         6         7         7
        31        30        32        32
         2         1         5         5
         2         7         6         6
        14        10         8         8
        24        19        17        17
        24        25        28        28
         9        10        16        16
         3         4         1         1
        33        26        27        27
        12        13        19        19
        21        30        22        22
        16        14        20        20
        16        23        21        21
        22        31        27        27
        18        25        17        17
        26        33        28        28
         4         3         8         8
        23        29        32        32
        13        12         6         6
zone t="boundary 4 bc-4", solutiontime= 0.4000000E+02, strandid=1004, i=32, j=46, f=feblock
  0.125000000000E+01  0.219251206392E+01  0.103724302461E+01  0.500000000000E+01  0.250000000000E+01  0.375000000000E+01  0.404200324774E+01
  0.500000000000E+01 -0.120297262841E-18  0.310152362409E+01  0.202479342020E+01  0.324151231464E+01  0.922061490191E+00 -0.120297262841E-18
  0.299062775774E+01  0.394624082883E+01  0.500000000000E+01  0.409252726285E+01  0.500000000000E+01  0.429310310915E+01  0.175434191980E+01
  0.284428995242E+01 -0.120297262841E-18 -0.120297262841E-18  0.715990576545E+00  0.930412228790E+00  0.125000000000E+01  0.187029682677E+01
  0.500000000000E+01  0.375000000000E+01  0.250000000000E+01 -0.120297262841E-18
  0.250494197117E+01  0.157686156160E+01  0.146289271009E+01  0.250494197117E+01  0.250494197117E+01  0.250494197117E+01  0.155830813274E+01
  0.125000000000E+01  0.250494197117E+01  0.177790177481E+01  0.477386199275E+00  0.742988685424E+00  0.308372018325E+00  0.125000000000E+01
 -0.487811078581E+00 -0.144524380962E+01 -0.125000000000E+01 -0.345533899378E+00 -0.120297262841E-18  0.627766083140E+00 -0.739814786992E+00
 -0.158811787973E+01 -0.120297262841E-18 -0.125000000000E+01 -0.600232012419E+00 -0.154800130438E+01 -0.249658903664E+01 -0.178862290564E+01
 -0.249658903664E+01 -0.249658903664E+01 -0.249658903664E+01 -0.249658903664E+01
  0.500000000000E+01  0.500000000000E+01  0.500000000000E+01  0.500000000000E+01  0.500000000000E+01  0.500000000000E+01  0.500000000000E+01
  0.500000000000E+01  0.500000000000E+01  0.500000000000E+01  0.500000000000E+01  0.500000000000E+01  0.500000000000E+01  0.500000000000E+01
  0.500000000000E+01  0.500000000000E+01  0.500000000000E+01  0.500000000000E+01  0.500000000000E+01  0.500000000000E+01  0.500000000000E+01
  0.500000000000E+01  0.500000000000E+01  0.500000000000E+01  0.500000000000E+01  0.500000000000E+01  0.500000000000E+01  0.500000000000E+01
  0.500000000000E+01  0.500000000000E+01  0.500000000000E+01  0.500000000000E+01
  0.100520805686E+01  0.100431922264E+01  0.100430498067E+01  0.100195898201E+01  0.100412009348E+01  0.100321752572E+01  0.100258949215E+01
  0.100200891224E+01  0.100424996067E+01  0.100371857121E+01  0.100446255572E+01  0.100347196456E+01  0.100365301011E+01  0.100423992184E+01
  0.100362939209E+01  0.100164311208E+01  0.100227305289E+01  0.100227909757E+01  0.100213223538E+01  0.100254673442E+01  0.100442988151E+01
  0.100338022193E+01  0.100288597395E+01  0.100335006437E+01  0.100323313367E+01  0.100406904263E+01  0.100511534023E+01  0.100432403103E+01
  0.100179357012E+01  0.100266908184E+01  0.100322320940E+01  0.100399795109E+01
  0.489143081473E+00  0.489273599355E+00  0.491032986628E+00  0.493071554919E+00  0.486813310890E+00  0.484775685151E+00  0.485407077011E+00
  0.494264259764E+00  0.495800888963E+00  0.486819302873E+00  0.488146831913E+00  0.487231381368E+00  0.494435320201E+00  0.496535899178E+00
  0.487825307830E+00  0.483167782991E+00  0.492561935361E+00  0.487247036339E+00  0.494865306720E+00  0.488002686392E+00  0.490072125670E+00
  0.488216381663E+00  0.497536481718E+00  0.496381515597E+00  0.495257692025E+00  0.493195604960E+00  0.490417226419E+00  0.490359912745E+00
  0.491396789588E+00  0.486161128341E+00  0.490250013500E+00  0.495515503850E+00
  0.000000000000E+00 -0.578523839434E-04 -0.127351331581E-02  0.000000000000E+00  0.000000000000E+00  0.000000000000E+00  0.473965951497E-03
  0.850770007741E-03  0.000000000000E+00  0.314103688221E-03 -0.890168622901E-03 -0.751200655933E-03 -0.173055038360E-02 -0.665416990700E-04
 -0.105311957819E-02 -0.998777185752E-03 -0.129436344425E-02 -0.207746730350E-02 -0.126368588278E-02 -0.996999478286E-03 -0.597615343197E-03
 -0.743039680933E-03 -0.202434754270E-03  0.805362924653E-03  0.601396795936E-04  0.162348649475E-02  0.000000000000E+00  0.803317552904E-03
  0.000000000000E+00  0.000000000000E+00  0.000000000000E+00  0.000000000000E+00