# vtk DataFile Version 2.0
FUN3D:global_image_vtk
ASCII
DATASET UNSTRUCTURED_GRID
POINTS 213 double
   -0.5474685441687832E-02    0.5000000000000054E-30    0.2504941971167291E+01
    0.1212121212121165E-30    0.8038138598670530E-04    0.5000000000000000E-30
    0.1245419105183472E+01    0.1000000000000004E-29    0.2504941971167291E+01
    0.1212121212121165E-30    0.1039425058013133E-03    0.1000000000000000E-29
    0.2497696093128780E+01    0.5000000000000018E-30    0.2504941971167291E+01
    0.1212121212121165E-30    0.1101298164665754E-03    0.5000000000000000E-30
    0.3750590968915824E+01    0.1000000000000000E-29    0.2504941971167291E+01
    0.1212121212121165E-30    0.1356499004943612E-03    0.1000000000000000E-29
    0.5003221331742151E+01    0.4999999999999983E-30    0.2504941971167291E+01
    0.1212121212121165E-30    0.9668873038898296E-04    0.5000000000000000E-30
    0.5004676687979097E+01    0.9999999999999966E-30    0.1281291202167040E+01
    0.4999999999999698E-30    0.1638053019384356E-03    0.1000000000000000E-29
    0.5004772673778115E+01    0.4999999999999947E-30    0.2775079906482894E-01
    0.9999999999999752E-30    0.1903478008447590E-03    0.5000000000000000E-30
    0.5003581183341212E+01    0.1000000000000000E-29   -0.1225853508883529E+01
    0.4999999999999769E-30    0.1607765204486578E-03    0.1000000000000000E-29
    0.5001952533742191E+01    0.5000000000000000E-30   -0.2496589036641631E+01
    0.1212121212121179E-30    0.1082258890302557E-03    0.5000000000000000E-30
    0.3750348111606544E+01    0.1000000000000000E-29   -0.2496589036641631E+01
    0.1212121212121179E-30    0.1458753696815807E-03    0.1000000000000000E-29
    0.2498611462994928E+01    0.5000000000000018E-30   -0.2496589036641631E+01
    0.1212121212121179E-30    0.1008933264248224E-03    0.5000000000000000E-30
    0.1247175269333276E+01    0.1000000000000004E-29   -0.2496589036641631E+01
    0.1212121212121179E-30    0.1108587619169654E-03    0.1000000000000000E-29
   -0.3383959865719266E-02    0.5000000000000036E-30   -0.2496589036641631E+01
    0.1212121212121179E-30    0.8107259626494168E-04    0.5000000000000000E-30
   -0.4257768979765597E-02    0.1000000000000004E-29   -0.1225734811642590E+01
    0.4999999999999769E-30    0.3415458742295194E-04    0.1000000000000000E-29
   -0.5251592448509257E-02    0.5000000000000054E-30    0.2619486024420453E-01
    0.9999999999999752E-30    0.1038724387187884E-03    0.5000000000000000E-30
   -0.5676060312426845E-02    0.1000000000000007E-29    0.1278221569065707E+01
    0.4999999999999716E-30    0.8224601702150336E-04    0.1000000000000000E-29
    0.9003209617952581E+00    0.5000000000000054E-30    0.1608979112280158E+01
    0.9999999999999717E-30    0.8704140727672227E-04    0.5000000000000000E-30
    0.3983172210692289E+01    0.1000000000000000E-29   -0.1561211904840279E+01
    0.4999999999999769E-30    0.1757116720370600E-03    0.1000000000000000E-29
    0.4035602039224469E+01    0.5000000000000000E-30    0.1486760030415520E+01
    0.9999999999999680E-30    0.1713312862106631E-03    0.5000000000000000E-30
    0.1036613723302902E+01    0.1000000000000004E-29   -0.1455626429916848E+01
    0.4999999999999769E-30    0.1047189301532914E-03    0.1000000000000000E-29
    0.1094353480630802E+01    0.5000000000000054E-30   -0.2964622010671852E+00
    0.9999999999999680E-30    0.1260590236917269E-03    0.5000000000000000E-30
    0.7298400267480001E+00    0.1000000000000007E-29    0.6874684746719117E+00
    0.4999999999999465E-30    0.1044598640544958E-03    0.1000000000000000E-29
    0.1617018659308944E+01    0.5000000000000054E-30    0.8553208024939393E+00
    0.9999999999999430E-30    0.1529810904974394E-03    0.5000000000000000E-30
    0.2143199662875790E+01    0.1000000000000004E-29   -0.1627128509216730E+01
    0.4999999999999769E-30    0.1606170425226816E-03    0.1000000000000000E-29
    0.4088840445400889E+01    0.4999999999999983E-30   -0.4351047825936264E+00
    0.9999999999999787E-30    0.2719933294109134E-03    0.5000000000000000E-30
    0.2977916511248925E+01    0.1000000000000004E-29   -0.8334991483094477E+00
    0.4999999999999483E-30    0.2245596931861327E-03    0.1000000000000000E-29
    0.3044093241383418E+01    0.5000000000000018E-30   -0.1814361225108581E+01
    0.9999999999999787E-30    0.1617000112420497E-03    0.5000000000000000E-30
    0.3427866614805211E+01    0.1000000000000000E-29    0.3813904839972497E+00
    0.4999999999999733E-30    0.2936955483429093E-03    0.1000000000000000E-29
    0.4313225355351749E+01    0.4999999999999983E-30    0.5489133376342519E+00
    0.9999999999999430E-30    0.2313009573592373E-03    0.5000000000000000E-30
    0.1823032737597358E+01    0.1000000000000004E-29    0.1771265193544254E+01
    0.4999999999999698E-30    0.1836202887151583E-03    0.1000000000000000E-29
    0.2806311152168375E+01    0.5000000000000018E-30    0.1358629373600680E+01
    0.9999999999999680E-30    0.1943492163983818E-03    0.5000000000000000E-30
    0.1891860875936711E+01    0.1000000000000004E-29   -0.8481310365607523E+00
    0.4999999999999483E-30    0.1670645501816170E-03    0.1000000000000000E-29
    0.2268769200166909E+01    0.5000000000000054E-30    0.7723691819196567E-01
    0.9999999999999752E-30    0.2072307783085314E-03    0.5000000000000000E-30
    0.5000000000000000E+01   -0.5502390669740164E-46    0.2504941971167291E+01
    0.1212121212121165E-30    0.1250000000000000E+01   -0.5502390669740164E-46
    0.5000000000000000E+01   -0.5502390669740164E-46    0.2504941971167291E+01
    0.1212121212121165E-30    0.2500000000000000E+01   -0.5502390669740164E-46
    0.5000000000000000E+01   -0.5502390669740164E-46    0.2504941971167291E+01
    0.1212121212121165E-30    0.3750000000000000E+01   -0.5502390669740164E-46
    0.5000000000000000E+01   -0.5502390669740164E-46    0.2504941971167291E+01
    0.1212121212121165E-30    0.5000000000000000E+01   -0.5502390669740164E-46
    0.3750000000000000E+01   -0.5502390669740164E-46    0.2504941971167291E+01
    0.1212121212121165E-30    0.5000000000000000E+01   -0.5502390669740164E-46
    0.2500000000000000E+01   -0.5502390669740164E-46    0.2504941971167291E+01
    0.1212121212121165E-30    0.5000000000000000E+01   -0.5502390669740164E-46
    0.1250000000000000E+01   -0.5502390669740164E-46    0.2504941971167291E+01
    0.1212121212121165E-30    0.5000000000000000E+01   -0.5502390669740164E-46
   -0.2371149776679545E-18   -0.5502390669740164E-46    0.2504941971167291E+01
    0.1212121212121165E-30    0.5000000000000000E+01   -0.5502390669740164E-46
   -0.2371149776679545E-18   -0.5502390669740164E-46    0.2504941971167291E+01
    0.1212121212121165E-30    0.3750000000000000E+01   -0.5502390669740164E-46
   -0.2371149776679545E-18   -0.5502390669740164E-46    0.2504941971167291E+01
    0.1212121212121165E-30    0.2500000000000000E+01   -0.5502390669740164E-46
   -0.2371149776679545E-18   -0.5502390669740164E-46    0.2504941971167291E+01
    0.1212121212121165E-30    0.1250000000000000E+01   -0.5502390669740164E-46
    0.9588956434871095E+00    0.4088323204877382E-30    0.2504941971167291E+01
    0.1212121212121165E-30    0.9696525519543873E+00    0.8253355966550981E-30
    0.3981953078951401E+01    0.7369699780804393E-31    0.2504941971167291E+01
    0.1212121212121165E-30    0.4070563854751271E+01    0.1516277355824053E-30
    0.4036122187252336E+01    0.5331184872985859E-30    0.2504941971167291E+01
    0.1212121212121165E-30    0.1017567520094671E+01    0.8139234257757521E-30
    0.9637572773153885E+00   -0.9331067766500393E-32    0.2504941971167291E+01
    0.1212121212121165E-30    0.3973598203142229E+01    0.1306014370155742E-30
    0.1546540136992396E+01    0.8002905657891901E-31    0.2504941971167291E+01
    0.1212121212121165E-30    0.2931570169315600E+01    0.3996885550956919E-30
    0.6973799521244312E+00    0.3481309068093335E-32    0.2504941971167291E+01
    0.1212121212121165E-30    0.3070319952453756E+01    0.2100037182684329E-30
    0.8903742148356887E+00    0.7712488796292578E-31    0.2504941971167291E+01
    0.1212121212121165E-30    0.2056562238187738E+01    0.4294668085389916E-30
    0.2183041995146011E+01    0.3782461580968198E-31    0.2504941971167291E+01
    0.1212121212121165E-30    0.3960694449828019E+01    0.2259705361708104E-30
    0.3855844872709870E+01    0.1784932175605481E-30    0.2504941971167291E+01
    0.1212121212121165E-30    0.2933250588118631E+01    0.3558534735529448E-30
    0.3152611367438028E+01    0.1115283363383562E-30    0.2504941971167291E+01
    0.1212121212121165E-30    0.3637668388416194E+01    0.2959845527144757E-30
    0.3103307385241869E+01    0.5185271477249636E-31    0.2504941971167291E+01
    0.1212121212121165E-30    0.4332607813099731E+01    0.1521436499773094E-30
    0.3266711045517940E+01    0.3601961362733093E-30    0.2504941971167291E+01
    0.1212121212121165E-30    0.1889656617463739E+01    0.6353768785668986E-30
    0.4232537554484796E+01    0.2580489315426431E-30    0.2504941971167291E+01
    0.1212121212121165E-30    0.1918626969802351E+01    0.4090791405804693E-30
    0.1905522374036519E+01    0.6572817491135915E-30    0.2504941971167291E+01
    0.1212121212121165E-30    0.7226290832134608E+00    0.8977306600899602E-30
    0.2879767723645805E+01    0.6107141644543874E-30    0.2504941971167291E+01
    0.1212121212121165E-30    0.9080945892181979E+00    0.8180347387425676E-30
    0.2012711365064515E+01    0.3615868018456023E-30    0.2504941971167291E+01
    0.1212121212121165E-30    0.1767082390977754E+01    0.7060364642882433E-30
    0.2669681472994637E+01    0.1849800474539402E-30    0.2504941971167291E+01
    0.1212121212121165E-30    0.2853394335010791E+01    0.4820509466862458E-30
    0.5000000000000000E+01   -0.5502390669740164E-46    0.1250000000000000E+01
   -0.5502390669740164E-46    0.5000000000000000E+01   -0.5502390669740164E-46
    0.5000000000000000E+01   -0.5502390669740164E-46   -0.2371149776679545E-18
[...]
POINT_DATA 213
SCALARS rho double 1
LOOKUP_TABLE default
   0.1346108316500842E+01
  -0.1177608889032341E-30
   0.9572040000029575E+00
   0.2108874242960355E-31
   0.9461172177975971E+00
  -0.8777077337038001E-31
   0.9421724428573265E+00
   0.2463027940433720E-31
   0.8436076771563676E+00
  -0.1732598461954414E-31
   0.7742023690656289E+00
   0.2325429213426750E-30
   0.7627583544838764E+00
   0.8548765037471657E-31
   0.7661562013056351E+00
   0.3222200678461720E-31
   0.8310489477502124E+00
  -0.1016795689358290E-30
   0.9353548244688791E+00
   0.3068730307975319E-31
   0.9343897288715577E+00
  -0.7551867073982244E-31
   0.9616167926820466E+00
  -0.8801525065690223E-32
   0.1448475453957673E+01
  -0.2080910581479826E-30
   0.1495420693531461E+01
  -0.7365293108755908E-30
   0.1646729695108554E+01
  -0.3640616156029260E-30
   0.1426611750762102E+01
  -0.5489176095331479E-30
   0.1009807294959468E+01
  -0.4443517929916321E-31
   0.9511451600256370E+00
  -0.2350096004955040E-31
   0.9438202819328309E+00
   0.1502190009534044E-31
   0.9574649708984390E+00
  -0.1788241092709722E-31
   0.9414971311292729E+00
   0.1314199382634843E-31
   0.1037119050672025E+01
  -0.2075618307289118E-30
   0.9258166085482891E+00
  -0.3401752367811105E-31
   0.9322402497726688E+00
  -0.7674208042770986E-31
   0.9538058253946492E+00
  -0.3489748599554419E-31
   0.9520452718266256E+00
  -0.4171331061712042E-31
   0.9351035433963526E+00
  -0.1567348462864773E-31
   0.9565496451901633E+00
  -0.2962286888475626E-31
   0.9378638715322776E+00
  -0.1486939723953613E-32
   0.9303460521822982E+00
  -0.2936548294502238E-31
   0.9446467736244907E+00
   0.1257888460513570E-31
   0.8862352681475245E+00
   0.5292301884284816E-31
   0.9424046352701572E+00
   0.1081191098911268E-30
   0.9637013833750635E+00
  -0.3482006411348084E-31
   0.1008356271715277E+01
  -0.1320215714184544E-32
   0.1006712428956787E+01
   0.1297322041963234E-32
   0.1001958932435794E+01
  -0.1468376571264238E-32
   0.1003217522683730E+01
  -0.4892413621483989E-32
   0.1004120115631020E+01
  -0.6469111473947720E-32
   0.1005208064985435E+01
  -0.5564399223337124E-32
   0.1004249961528766E+01
  -0.1802699455935708E-32
   0.1008268330193022E+01
  -0.4612036475869056E-32
   0.1023869441119530E+01
   0.4401460009507200E-33
   0.1063755461282688E+01
   0.3369727636562684E-32
   0.1019394088413146E+01
   0.2549104484065103E-32
   0.1001777911553249E+01
  -0.2389863668875884E-32
   0.9645774357427249E+00
  -0.5007789938032523E-31
   0.1005263328317390E+01
  -0.4528993913927300E-32
   0.1000745736425962E+01
  -0.6736932758738878E-33
   0.1008696549390303E+01
  -0.3737980897045840E-32
   0.1008037948602740E+01
   0.1511580023608144E-32
   0.1002353862220743E+01
  -0.4724773459295270E-32
   0.9980195530610566E+00
  -0.2360602582491020E-32
   0.1000592769811783E+01
  -0.3289516368187538E-32
   0.1001620641855732E+01
  -0.4554854757759461E-32
   0.9828039320178525E+00
  -0.1135559376726959E-31
   0.9843899740538445E+00
  -0.8360036014339762E-32
   0.9834136046966416E+00
  -0.4733372396842778E-31
   0.9790327257945057E+00
  -0.3586502556813352E-31
   0.9904757374184416E+00
  -0.1230853195211673E-31
   0.9935193469757830E+00
  -0.2614895858991868E-32
   0.1002008897064660E+01
  -0.1286907143344851E-32
   0.1002132242439342E+01
  -0.1236466247027030E-32
   0.1002273087499443E+01
  -0.7100237289231823E-33
   0.1001793578227546E+01
  -0.5490864143269197E-33
   0.1009816088986808E+01
   0.1298052384912022E-32
   0.1006507955723275E+01
  -0.3875897710399057E-32
   0.9561125624497153E+00
  -0.3365993815407846E-31
   0.9252807431886986E+00
  -0.3956041524985184E-31
   0.1007053967312314E+01
   0.7701762078028257E-33
   0.1004490981275662E+01
   0.8722701843621512E-34
   0.9145128350327870E+00
  -0.4174571218572938E-31
   0.9091570311117019E+00
  -0.2042561728543866E-31
   0.8752463068388932E+00
  -0.1988129165888707E-31
   0.9767979588587087E+00
  -0.1298079343615980E-31
   0.1000541360192280E+01
  -0.2765353484188858E-32
   0.1005826549638052E+01
   0.3753658805755144E-33
   0.1012896701438849E+01
   0.1001364257468124E-32
   0.1011680292248630E+01
   0.7244253621451894E-33
   0.1010415973532413E+01
   0.1112836716793924E-33
   0.1005456587986300E+01
   0.3299881378752506E-33
   0.9909167505412684E+00
  -0.7162252248752104E-32
   0.1005149610908037E+01
  -0.1645883507376044E-32
   0.9860895085147166E+00
  -0.2084164621740465E-32
   0.1005593206564678E+01
  -0.1807826704093572E-32
   0.1004239922292951E+01
  -0.2052520627162254E-32
   0.1002885969147485E+01
  -0.1680771670489106E-32
   0.1003350062930826E+01
  -0.1850815270047084E-32
   0.1003997944137729E+01
  -0.2025734108584816E-32
   0.1005115344735834E+01
  -0.5167191166511783E-32
   0.1003223209726316E+01
  -0.5847642346201724E-32
   0.1002669122851456E+01
  -0.4083143924614059E-32
   0.1002589509889389E+01
  -0.4180596582809153E-32
   0.1004069040513356E+01
  -0.3733398457029401E-32
   0.1004304990949634E+01
  -0.4571198614883678E-32
   0.1001643156368242E+01
  -0.3316477002829453E-32
   0.1002279137160657E+01
  -0.3841457595986476E-32
   0.1002546783321984E+01
  -0.3711249325422606E-32
   0.1003472000563801E+01
  -0.5345475453044244E-32
   0.1003380240071178E+01
  -0.5306869375656454E-32
   0.1003233137397642E+01
  -0.2892387079965813E-32
   0.1004429898905981E+01
  -0.5442573995743939E-32
   0.1004324039305827E+01
  -0.5630343786632454E-32
   0.1003653018040415E+01
  -0.3701265931908199E-32
   0.1003718560569738E+01
  -0.5517764470871702E-32
   0.1004319242994620E+01
  -0.5867640264248923E-32
   0.1004462563087482E+01
  -0.6191705040056784E-32
   0.1003629395922019E+01
  -0.5732794493590928E-32
   0.1064485257326684E+01
  -0.6168872610889953E-32
   0.1028442061775152E+01
   0.2142381135939431E-32
   0.1009605873478442E+01
  -0.3222380502544257E-32
   0.1006626987315737E+01
  -0.3720444161885193E-32
   0.1163967546206462E+01
  -0.4691744982277823E-31
   0.1086026686668599E+01
  -0.2900713475304093E-32
   0.1007907087126126E+01
  -0.3542416572976038E-32
   0.1007251825887134E+01
  -0.3822307722795155E-32
   0.1006796456293847E+01
  -0.3647498522541146E-32
   0.1013053883428576E+01
  -0.2669904297432302E-32
   0.1019340792095352E+01
   0.3038529737398731E-32
   0.1235123173377647E+01
  -0.1137411831928970E-30
   0.1032535565370653E+01
   0.5374151898225182E-32
   0.1046565480908044E+01
   0.8897349778301076E-32
   0.1201701822216681E+01
  -0.2041248017941315E-31
   0.1014672138235379E+01
  -0.2586216790437331E-32
   0.1032297498438421E+01
   0.4148531018929767E-32
   0.1028222183528636E+01
   0.3282074171653019E-32
   0.1014640520497264E+01
  -0.1077374964377121E-32
   0.1028986927095068E+01
  -0.6003586474709704E-33
   0.1002003667832922E+01
  -0.2310347522276085E-32
   0.9608147838460326E+00
  -0.4501964025156856E-31
   0.1006858072239883E+01
  -0.3902831930244449E-32
   0.1001324898750412E+01
  -0.6150470415078710E-32
   0.1010798261829075E+01
  -0.1808667621810688E-32
   0.1012231336440671E+01
  -0.4506438452801205E-32
   0.1000939569542770E+01
  -0.4606093256165187E-32
   0.9979357844405612E+00
  -0.4919484180470983E-32
   0.9980690507189178E+00
  -0.4007942208345695E-32
   0.1001192040616464E+01
  -0.4325793797513918E-32
   0.9842100792201475E+00
  -0.2063385572393366E-31
   0.9815228439810643E+00
  -0.1482315546939516E-31
   0.9648740513620350E+00
  -0.4544621542949334E-31
   0.9680944441410090E+00
  -0.4916616489748710E-31
   0.9914084287506434E+00
  -0.1964540704572847E-31
   0.9910913083813594E+00
  -0.6075835631107102E-32
   0.9925587125131271E+00
  -0.5687697016056005E-32
   0.1001727549563394E+01
  -0.3481300081973825E-32
   0.9993245747860645E+00
  -0.3737737730371343E-32
   0.9941434372230836E+00
  -0.5613621373702713E-32
   0.1006982475198527E+01
   0.4508114423133282E-33
   0.1022613019705348E+01
   0.5287018740808228E-32
   0.1001120639319990E+01
  -0.2122940797665701E-31
   0.1008783935636469E+01
  -0.3685080961321715E-32
   0.1004774773029788E+01
  -0.4072051966721163E-32
   0.1009030411028695E+01
  -0.2869757824705790E-32
   0.9967211495373257E+00
  -0.5974090104243264E-32
   0.1005570715623228E+01
  -0.2353998418426575E-32
   0.1003324760138721E+01
  -0.5026552946398338E-32
   0.9949845985440544E+00
  -0.3836815759810767E-32
   0.9833501667649612E+00
  -0.8756227977928459E-32
   0.9944494693127691E+00
  -0.5033885158910594E-32
   0.9973474195660298E+00
  -0.3733713667482440E-32
   0.9932503759967931E+00
  -0.5536561973819403E-32
   0.1001311885085576E+01
  -0.4117497605257599E-32
   0.1003000708481533E+01
  -0.4469765092092982E-32
   0.1002188291658136E+01
  -0.4060306356726614E-32
   0.9947120026870496E+00
  -0.3102674064430192E-32
   0.9937832198844615E+00
  -0.3583558205641010E-32
   0.1004861704729613E+01
  -0.4838300306338867E-32
   0.1020101282152696E+01
  -0.6998557555325223E-32
   0.1005337230077012E+01
  -0.1030188698587143E-31
   0.9817045978649142E+00
  -0.1686943273662124E-31
   0.1004974596049609E+01
  -0.4655042475260371E-32
   0.1012374662640790E+01
  -0.2246195350350455E-32
   0.9873720332481125E+00
  -0.2688580076738289E-31
   0.9551284415002078E+00
  -0.1184413031080969E-32
   0.9865253756938819E+00
  -0.1926656633029421E-31
   0.9865916536867926E+00
  -0.1248923137512729E-31
   0.9920067166480934E+00
  -0.4788190514117975E-31
   0.9934435622724828E+00
  -0.2361985083322649E-31
   0.9960682555264472E+00
  -0.5866038030581544E-31
   0.1037400105966180E+01
  -0.1613050195322349E-31
   0.1033161102269328E+01
  -0.7995237897386863E-32
   0.1001442943037436E+01
  -0.2749514668201464E-32
   0.1001928635397816E+01
  -0.4777728613194365E-32
   0.9912313106920267E+00
  -0.3043420183287682E-32
   0.9911145323179528E+00
  -0.8045922702479788E-32
   0.9649433996184423E+00
  -0.1821598943876379E-31
   0.9933790316432551E+00
  -0.4469840625406190E-32
   0.1006090796485730E+01
  -0.4566684335205738E-33
   0.1001963018927982E+01
  -0.1176966031750300E-32
   0.9908628976780336E+00
  -0.6794532052281427E-32
   0.9742169944825234E+00
  -0.1689457907536428E-31
   0.9420656176709452E+00
  -0.3347032350528107E-31
   0.9821543956429973E+00
  -0.2440252026093694E-31
   0.9794783301633848E+00
  -0.1144631648643349E-31
   0.9704368615490500E+00
  -0.1548710052517246E-31
   0.9720887190447297E+00
  -0.3528336255424479E-31
   0.9557898419377640E+00
  -0.1215021159381505E-31
   0.9498086707842284E+00
  -0.3122557915721698E-31
   0.9529904617326102E+00
  -0.4051517465032888E-31
   0.1002635788408436E+01
  -0.3554145879310311E-32
   0.1002475631431549E+01
  -0.4746864145805379E-32
   0.1000513073384034E+01
  -0.3039991843935657E-32
   0.1001674838824351E+01
  -0.1517753395229256E-32
   0.9610035228933085E+00
  -0.3574722140213786E-31
   0.9492443249370394E+00
  -0.6631866569677345E-31
   0.9586632958420851E+00
  -0.3154411618240729E-31
   0.1001121360766994E+01
  -0.4384675232842645E-32
   0.1000501199737769E+01
  -0.3466182184330139E-32
   0.1001159801836342E+01
  -0.2027847763523448E-32
   0.9807420385459666E+00
  -0.1683753415798463E-31
   0.9805568735858305E+00
  -0.2124757920278519E-31
   0.9629217555758238E+00
  -0.2912348398470941E-31
SCALARS u double 1
LOOKUP_TABLE default
   0.0000000000000000E+00
   0.0000000000000000E+00
   0.0000000000000000E+00
   0.0000000000000000E+00
   0.0000000000000000E+00
   0.0000000000000000E+00
   0.0000000000000000E+00
   0.0000000000000000E+00
   0.0000000000000000E+00
   0.0000000000000000E+00
   0.0000000000000000E+00
   0.0000000000000000E+00
   0.0000000000000000E+00
   0.0000000000000000E+00
   0.0000000000000000E+00
   0.0000000000000000E+00
   0.0000000000000000E+00
   0.0000000000000000E+00
   0.0000000000000000E+00
   0.0000000000000000E+00
   0.0000000000000000E+00
   0.0000000000000000E+00
   0.0000000000000000E+00
   0.0000000000000000E+00
   0.0000000000000000E+00
   0.0000000000000000E+00
   0.0000000000000000E+00
   0.0000000000000000E+00
   0.0000000000000000E+00
   0.0000000000000000E+00
   0.0000000000000000E+00
   0.0000000000000000E+00
   0.0000000000000000E+00
   0.0000000000000000E+00
   0.0000000000000000E+00
   0.0000000000000000E+00
   0.0000000000000000E+00
   0.0000000000000000E+00
   0.0000000000000000E+00
   0.0000000000000000E+00
   0.0000000000000000E+00
   0.0000000000000000E+00
   0.0000000000000000E+00
   0.0000000000000000E+00
   0.0000000000000000E+00
   0.0000000000000000E+00
   0.0000000000000000E+00
   0.0000000000000000E+00
   0.0000000000000000E+00
   0.0000000000000000E+00
   0.0000000000000000E+00
   0.0000000000000000E+00
   0.0000000000000000E+00
   0.0000000000000000E+00
   0.0000000000000000E+00
   0.0000000000000000E+00
   0.0000000000000000E+00
   0.0000000000000000E+00
   0.0000000000000000E+00
   0.0000000000000000E+00
   0.0000000000000000E+00
   0.0000000000000000E+00
   0.0000000000000000E+00
   0.0000000000000000E+00
   0.0000000000000000E+00
   0.0000000000000000E+00
   0.4945973575745422E+00
  -0.2504824911541495E-31
   0.5336248061158800E+00
  -0.9236855886010352E-32
   0.5182740392019837E+00
  -0.3131475821241384E-32
   0.4930714262477723E+00
  -0.7166314471393076E-34
   0.4847754239424729E+00
   0.8344609322919539E-32
   0.4868132658670647E+00
   0.1285698963544591E-31
   0.4891430749634281E+00
   0.1140475750466418E-31
   0.4958009008977152E+00
   0.1942069688161082E-32
   0.4899007395784473E+00
   0.6904916486410063E-32
   0.4718072595002677E+00
   0.2271044009684319E-33
   0.4448872821907606E+00
  -0.4956103083307569E-32
   0.4844369957851142E+00
   0.5356577153708946E-31
   0.5097703287291926E+00
  -0.6426013893904383E-33
   0.4401859466251520E+00
   0.9160612538424634E-31
   0.4949587095285503E+00
   0.5818839740334634E-32
   0.5223003571559717E+00
  -0.5215053407406137E-32
   0.4962747030056452E+00
   0.2729569895280263E-32
   0.5223832220424166E+00
  -0.1083581682902247E-31
   0.5038168240941371E+00
   0.3053104403149680E-32
   0.5644336968402028E+00
  -0.3176426805945543E-32
   0.5245894633172873E+00
  -0.3418076385476999E-32
   0.4990985079196835E+00
   0.3634268695369326E-32
   0.5729201584249116E+00
   0.1632419763903192E-31
   0.5693592822224299E+00
  -0.6388154750399620E-33
   0.3752192377047668E+00
   0.9373934393535661E-31
   0.4003638958422239E+00
   0.6331489799160084E-31
   0.5599389980797649E+00
   0.3108858789885149E-31
   0.5562259011404095E+00
  -0.1472837806508524E-32
   0.4942640857013113E+00
  -0.1222804965084336E-32
   0.4948651986390952E+00
  -0.2349186462630665E-32
   0.4925619077545062E+00
  -0.3794233520963914E-32
   0.4913967779144106E+00
  -0.2316317359890106E-32
   0.5162597181639462E+00
  -0.6606839372484257E-33
   0.5363670730794425E+00
   0.5455264062713027E-32
   0.4951374099601327E+00
  -0.4948566698482301E-32
   0.4520512866166652E+00
  -0.3405760016564338E-31
   0.5129007648835044E+00
  -0.1329506370837208E-32
   0.5117699738151741E+00
  -0.2587046941380948E-32
   0.4786317420143882E+00
  -0.1180538362884662E-31
   0.4931122295474848E+00
  -0.3456660231806959E-31
   0.4600270422023213E+00
  -0.7818837151685315E-31
   0.5242595714713547E+00
  -0.2535997813602743E-31
   0.5299947206181750E+00
  -0.3418882695518152E-32
   0.5129700664921650E+00
  -0.4540288377681408E-32
   0.5328928660783505E+00
   0.1345097234544166E-32
   0.5309782656068394E+00
   0.3326783091336077E-32
   0.5309767600951592E+00
  -0.2767219339739339E-32
   0.5063651327422923E+00
  -0.4150528747696003E-32
   0.5279536198712640E+00
  -0.1519667486187035E-31
   0.5409238857993494E+00
  -0.4821857508677201E-32
   0.5363719066417735E+00
  -0.1521202223053271E-31
   0.5374201321001753E+00
  -0.6352635662015058E-32
   0.4965358977926098E+00
   0.7786767106205250E-33
   0.4975364855689224E+00
   0.6560548312635858E-33
   0.4963815196290166E+00
   0.2131813256817844E-32
   0.4955155009192402E+00
   0.1995630999478345E-32
   0.4904172546828411E+00
   0.9747509009041845E-32
   0.4902500218832453E+00
   0.1083628212623250E-31
   0.4861611301599767E+00
   0.5924017536867238E-32
   0.4854067626036516E+00
   0.5624894947667718E-32
   0.4931955991096282E+00
   0.7482050124200541E-32
   0.4910329673761117E+00
   0.9829445209568475E-32
   0.4831677522634646E+00
   0.2548201517104438E-32
   0.4872468852168748E+00
   0.3596765157804464E-32
   0.4880024340365564E+00
   0.3472678266659899E-32
   0.4872312423247779E+00
   0.8902575664481952E-32
   0.4882163843624419E+00
   0.1067925975603845E-31
   0.4952576818748229E+00
   0.6042558911637472E-32
   0.4900721165549364E+00
   0.1213855315664515E-31
   0.4903599279892054E+00
   0.1135215564334365E-31
   0.4944353031531026E+00
   0.8087371883399236E-32
   0.4868191770702411E+00
   0.1037964247802043E-31
   0.4892735525631886E+00
   0.1174741866405224E-31
   0.4881467943128405E+00
   0.1259425019836255E-31
   0.4878252412757033E+00
   0.1050168859584683E-31
   0.4449106771311894E+00
  -0.4106867646661134E-32
   0.4700132875682185E+00
  -0.1581890811413855E-32
   0.4891774916945089E+00
   0.3421856057983313E-32
   0.4885974633330442E+00
   0.8942148466326998E-32
   0.4510294632511682E+00
   0.3546075396731241E-31
   0.4681803401153268E+00
  -0.1277131525271857E-31
   0.4876666904514964E+00
   0.5616065728979352E-32
   0.4868262748507997E+00
   0.8284804364247277E-32
   0.4909268400975517E+00
   0.6382840487940750E-32
   0.4793945542574958E+00
   0.6164714415334421E-32
   0.4657906778845248E+00
  -0.3733536637797342E-32
   0.3794391074162001E+00
   0.3591395970372557E-31
   0.4903637341439630E+00
  -0.4087918837459462E-31
   0.4487969161877126E+00
  -0.1380697345179616E-31
   0.4432386723189962E+00
   0.1236230105087063E-31
   0.4845716406477011E+00
   0.3620967103562911E-32
   0.4621867849096559E+00
  -0.6554409528760788E-32
   0.4663606658520142E+00
  -0.3098489665428957E-31
   0.4747787029445982E+00
   0.2523105226812000E-32
   0.4893811122947589E+00
   0.5096341576860899E-31
   0.5085638693537163E+00
  -0.3638423112323438E-33
   0.4305372592631302E+00
   0.4073420031945019E-31
   0.4927298035939199E+00
   0.4985706081343818E-32
   0.5320327257780241E+00
  -0.5116825667739206E-32
   0.4913855406976269E+00
   0.9644278033515169E-33
   0.5209473686786729E+00
  -0.2235582951451911E-32
   0.5061309369923199E+00
   0.1672406215807565E-32
   0.5690650995502683E+00
   0.1122597463233371E-31
   0.5274990559892130E+00
   0.4059351067899576E-33
   0.5015024137648026E+00
   0.3365585805635570E-32
   0.5821782452824964E+00
   0.3581008224588911E-31
   0.5691769249090803E+00
   0.1983272979868264E-31
   0.3403300367516611E+00
   0.1004088426956464E-30
   0.3786151437510021E+00
  -0.1186138696384536E-31
   0.5753346478894908E+00
   0.5551210788684769E-31
   0.5668543264966578E+00
   0.9988071005783894E-32
   0.5703059562242246E+00
  -0.4924337736615169E-32
   0.5291879203995400E+00
  -0.8599421833695921E-32
   0.5449837174864403E+00
  -0.1358203213678708E-31
   0.5719102639051283E+00
   0.7506933928718832E-32
   0.5385667385936975E+00
  -0.2199660830770781E-31
   0.5475905554708391E+00
   0.2252603030505230E-31
   0.5821515961949547E+00
   0.3436940454880401E-31
   0.4925318967333801E+00
  -0.6088728191268200E-32
   0.5041571112052911E+00
   0.1075818332467160E-32
   0.4961293263729888E+00
  -0.2294775863255860E-32
   0.5562736232554496E+00
   0.4200941856952204E-32
   0.4757837004669504E+00
  -0.3959292085407389E-31
   0.4950183186027616E+00
   0.6361812137997528E-32
   0.5496188053136570E+00
  -0.7029314887758475E-32
   0.5889517157505089E+00
   0.2028614541191065E-31
   0.5839552614067425E+00
   0.1370333162332380E-32
   0.5468175655759058E+00
  -0.4319127636914844E-32
   0.5803880221176509E+00
   0.9789075803211941E-33
   0.5106065639243116E+00
  -0.1881476036303918E-32
   0.5029552648842103E+00
   0.7252707124994524E-33
   0.5033112962653636E+00
   0.1002299367113809E-32
   0.5676222184583956E+00
   0.1966980255455780E-32
   0.5564619500957796E+00
  -0.1970104832625296E-32
   0.4947144957124249E+00
   0.2845425345955292E-32
   0.5506785365268110E+00
  -0.1676775427541426E-31
   0.5513581030287132E+00