# vtk DataFile Version 2.0
FUN3D:global_image_vtk
ASCII
DATASET UNSTRUCTURED_GRID
POINTS 213 double
   -0.5474685441687832E-02    0.5000000000000008E-30    0.2504941971167291E+01
    0.1212121212121206E-30    0.8038138598670530E-04    0.5000000000000000E-30
    0.1245419105183472E+01    0.1000000000000000E-29    0.2504941971167291E+01
    0.1212121212121206E-30    0.1039425058013133E-03    0.1000000000000000E-29
    0.2497696093128780E+01    0.5000000000000000E-30    0.2504941971167291E+01
    0.1212121212121206E-30    0.1101298164665754E-03    0.5000000000000000E-30
    0.3750590968915824E+01    0.1000000000000000E-29    0.2504941971167291E+01
    0.1212121212121206E-30    0.1356499004943612E-03    0.1000000000000000E-29
    0.5003221331742151E+01    0.5000000000000000E-30    0.2504941971167291E+01
    0.1212121212121206E-30    0.9668873038898296E-04    0.5000000000000000E-30
    0.5004676687979097E+01    0.1000000000000000E-29    0.1281291202167040E+01
    0.4999999999999958E-30    0.1638053019384356E-03    0.1000000000000000E-29
    0.5004772673778115E+01    0.4999999999999993E-30    0.2775079906482894E-01
    0.9999999999999969E-30    0.1903478008447590E-03    0.5000000000000000E-30
    0.5003581183341212E+01    0.1000000000000000E-29   -0.1225853508883529E+01
    0.4999999999999969E-30    0.1607765204486578E-03    0.1000000000000000E-29
    0.5001952533742191E+01    0.5000000000000000E-30   -0.2496589036641631E+01
    0.1212121212121208E-30    0.1082258890302557E-03    0.5000000000000000E-30
    0.3750348111606544E+01    0.1000000000000000E-29   -0.2496589036641631E+01
    0.1212121212121208E-30    0.1458753696815807E-03    0.1000000000000000E-29
    0.2498611462994928E+01    0.5000000000000000E-30   -0.2496589036641631E+01
    0.1212121212121208E-30    0.1008933264248224E-03    0.5000000000000000E-30
    0.1247175269333276E+01    0.1000000000000000E-29   -0.2496589036641631E+01
    0.1212121212121208E-30    0.1108587619169654E-03    0.1000000000000000E-29
   -0.3383959865719266E-02    0.5000000000000008E-30   -0.2496589036641631E+01
    0.1212121212121208E-30    0.8107259626494168E-04    0.5000000000000000E-30
   -0.4257768979765597E-02    0.1000000000000000E-29   -0.1225734811642590E+01
    0.4999999999999969E-30    0.3415458742295208E-04    0.1000000000000000E-29
   -0.5251592448509257E-02    0.5000000000000008E-30    0.2619486024420453E-01
    0.9999999999999969E-30    0.1038724387187884E-03    0.5000000000000000E-30
   -0.5676060312426845E-02    0.1000000000000002E-29    0.1278221569065707E+01
    0.4999999999999965E-30    0.8224601702150336E-04    0.1000000000000000E-29
    0.9003209617952581E+00    0.5000000000000008E-30    0.1608979112280158E+01
    0.9999999999999962E-30    0.8704140727672227E-04    0.5000000000000000E-30
    0.3983172210692289E+01    0.1000000000000000E-29   -0.1561211904840279E+01
    0.4999999999999969E-30    0.1757116720370600E-03    0.1000000000000000E-29
    0.4035602039224469E+01    0.5000000000000000E-30    0.1486760030415520E+01
    0.9999999999999954E-30    0.1713312862106631E-03    0.5000000000000000E-30
    0.1036613723302902E+01    0.1000000000000000E-29   -0.1455626429916848E+01
    0.4999999999999969E-30    0.1047189301532914E-03    0.1000000000000000E-29
    0.1094353480630802E+01    0.5000000000000008E-30   -0.2964622010671852E+00
    0.9999999999999954E-30    0.1260590236917269E-03    0.5000000000000000E-30
    0.7298400267480001E+00    0.1000000000000002E-29    0.6874684746719117E+00
    0.4999999999999852E-30    0.1044598640544958E-03    0.1000000000000000E-29
    0.1617018659308944E+01    0.5000000000000008E-30    0.8553208024939376E+00
    0.9999999999997168E-30    0.1529810904974394E-03    0.5000000000000000E-30
    0.2143199662875790E+01    0.1000000000000000E-29   -0.1627128509216730E+01
    0.4999999999999969E-30    0.1606170425226816E-03    0.1000000000000000E-29
    0.4088840445400889E+01    0.5000000000000000E-30   -0.4351047825936264E+00
    0.9999999999999969E-30    0.2719933294109134E-03    0.5000000000000000E-30
    0.2977916511248925E+01    0.1000000000000000E-29   -0.8334991483094494E+00
    0.4999999999997176E-30    0.2245596931861327E-03    0.1000000000000000E-29
    0.3044093241383418E+01    0.5000000000000000E-30   -0.1814361225108581E+01
    0.9999999999999969E-30    0.1617000112420497E-03    0.5000000000000000E-30
    0.3427866614805211E+01    0.1000000000000000E-29    0.3813904839972497E+00
    0.4999999999999965E-30    0.2936955483429093E-03    0.1000000000000000E-29
    0.4313225355351749E+01    0.5000000000000000E-30    0.5489133376342502E+00
    0.9999999999997168E-30    0.2313009573592373E-03    0.5000000000000000E-30
    0.1823032737597358E+01    0.1000000000000000E-29    0.1771265193544254E+01
    0.4999999999999958E-30    0.1836202887151583E-03    0.1000000000000000E-29
    0.2806311152168375E+01    0.5000000000000000E-30    0.1358629373600680E+01
    0.9999999999999954E-30    0.1943492163983818E-03    0.5000000000000000E-30
    0.1891860875936711E+01    0.1000000000000000E-29   -0.8481310365607539E+00
    0.4999999999997176E-30    0.1670645501816170E-03    0.1000000000000000E-29
    0.2268769200166909E+01    0.5000000000000008E-30    0.7723691819196567E-01
    0.9999999999999969E-30    0.2072307783085314E-03    0.5000000000000000E-30
    0.5000000000000000E+01    0.1997758477355556E-46    0.2504941971167291E+01
    0.1212121212121206E-30    0.1250000000000000E+01    0.1997758477355556E-46
    0.5000000000000000E+01    0.1997758477355556E-46    0.2504941971167291E+01
    0.1212121212121206E-30    0.2500000000000000E+01    0.1997758477355556E-46
    0.5000000000000000E+01    0.1997758477355556E-46    0.2504941971167291E+01
    0.1212121212121206E-30    0.3750000000000000E+01    0.1997758477355556E-46
    0.5000000000000000E+01    0.1997758477355556E-46    0.2504941971167291E+01
    0.1212121212121206E-30    0.5000000000000000E+01    0.1997758477355556E-46
    0.3750000000000000E+01    0.1997758477355556E-46    0.2504941971167291E+01
    0.1212121212121206E-30    0.5000000000000000E+01    0.1997758477355556E-46
    0.2500000000000000E+01    0.1997758477355556E-46    0.2504941971167291E+01
    0.1212121212121206E-30    0.5000000000000000E+01    0.1997758477355556E-46
    0.1250000000000000E+01    0.1997758477355556E-46    0.2504941971167291E+01
    0.1212121212121206E-30    0.5000000000000000E+01    0.1997758477355556E-46
   -0.3180786490322941E-19    0.1997758477355556E-46    0.2504941971167291E+01
    0.1212121212121206E-30    0.5000000000000000E+01    0.1997758477355556E-46
   -0.3180786490322941E-19    0.1997758477355556E-46    0.2504941971167291E+01
    0.1212121212121206E-30    0.3750000000000000E+01    0.1997758477355556E-46
   -0.3180786490322941E-19    0.1997758477355556E-46    0.2504941971167291E+01
    0.1212121212121206E-30    0.2500000000000000E+01    0.1997758477355556E-46
   -0.3180786490322941E-19    0.1997758477355556E-46    0.2504941971167291E+01
    0.1212121212121206E-30    0.1250000000000000E+01    0.1997758477355556E-46
    0.9588956434871093E+00    0.4088323204879666E-30    0.2504941971167291E+01
    0.1212121212121206E-30    0.9696525519543873E+00    0.8253355966551571E-30
    0.3981953078951402E+01    0.7369699780755183E-31    0.2504941971167291E+01
    0.1212121212121206E-30    0.4070563854751271E+01    0.1516277355830811E-30
    0.4036122187252336E+01    0.5331184872987826E-30    0.2504941971167291E+01
    0.1212121212121206E-30    0.1017567520094671E+01    0.8139234257758073E-30
    0.9637572773153891E+00   -0.9331067766501499E-32    0.2504941971167291E+01
    0.1212121212121206E-30    0.3973598203142229E+01    0.1306014370159065E-30
    0.1546540136992396E+01    0.8002905657925218E-31    0.2504941971167291E+01
    0.1212121212121206E-30    0.2931570169315601E+01    0.3996885550960811E-30
    0.6973799521244314E+00    0.3481309068446004E-32    0.2504941971167291E+01
    0.1212121212121206E-30    0.3070319952453756E+01    0.2100037182686921E-30
    0.8903742148356883E+00    0.7712488796366559E-31    0.2504941971167291E+01
    0.1212121212121206E-30    0.2056562238187738E+01    0.4294668085393027E-30
    0.2183041995146013E+01    0.3782461580939406E-31    0.2504941971167291E+01
    0.1212121212121206E-30    0.3960694449828019E+01    0.2259705361713305E-30
    0.3855844872709870E+01    0.1784932175604504E-30    0.2504941971167291E+01
    0.1212121212121206E-30    0.2933250588118630E+01    0.3558534735536725E-30
    0.3152611367438030E+01    0.1115283363379130E-30    0.2504941971167291E+01
    0.1212121212121206E-30    0.3637668388416195E+01    0.2959845527158257E-30
    0.3103307385241870E+01    0.5185271477204589E-31    0.2504941971167291E+01
    0.1212121212121206E-30    0.4332607813099731E+01    0.1521436499778402E-30
    0.3266711045517939E+01    0.3601961362739666E-30    0.2504941971167291E+01
    0.1212121212121206E-30    0.1889656617463738E+01    0.6353768785673482E-30
    0.4232537554484796E+01    0.2580489315428670E-30    0.2504941971167291E+01
    0.1212121212121206E-30    0.1918626969802351E+01    0.4090791405809592E-30
    0.1905522374036519E+01    0.6572817491138782E-30    0.2504941971167291E+01
    0.1212121212121206E-30    0.7226290832134608E+00    0.8977306600899952E-30
    0.2879767723645805E+01    0.6107141644546052E-30    0.2504941971167291E+01
    0.1212121212121206E-30    0.9080945892181980E+00    0.8180347387425781E-30
    0.2012711365064515E+01    0.3615868018463546E-30    0.2504941971167291E+01
    0.1212121212121206E-30    0.1767082390977754E+01    0.7060364642884592E-30
    0.2669681472994637E+01    0.1849800474542858E-30    0.2504941971167291E+01
    0.1212121212121206E-30    0.2853394335010791E+01    0.4820509466869635E-30
    0.5000000000000000E+01    0.1997758477355556E-46    0.1250000000000000E+01
    0.1997758477355556E-46    0.5000000000000000E+01    0.1997758477355556E-46
    0.5000000000000000E+01    0.1997758477355556E-46   -0.3180786490322941E-19
[...]
POINT_DATA 213
SCALARS rho double 1
LOOKUP_TABLE default
   0.1346108316263293E+01
  -0.1177608889782753E-30
   0.9572039998602494E+00
   0.2108874295942589E-31
   0.9461172176747007E+00
  -0.8777077101095273E-31
   0.9421724422256268E+00
   0.2463028739112598E-31
   0.8436076752022975E+00
  -0.1732596978016128E-31
   0.7742023688684263E+00
   0.2325429216601633E-30
   0.7627583542975900E+00
   0.8548765174458438E-31
   0.7661562012441850E+00
   0.3222200611851111E-31
   0.8310489475275620E+00
  -0.1016795665033057E-30
   0.9353548242978095E+00
   0.3068730503022469E-31
   0.9343897288271610E+00
  -0.7551866941452419E-31
   0.9616167925155988E+00
  -0.8801524610095936E-32
   0.1448475453679950E+01
  -0.2080910580651013E-30
   0.1495420693456768E+01
  -0.7365293102156608E-30
   0.1646729694954201E+01
  -0.3640616153918004E-30
   0.1426611750618564E+01
  -0.5489176093563060E-30
   0.1009807294814470E+01
  -0.4443517874342997E-31
   0.9511451599259717E+00
  -0.2350095873707395E-31
   0.9438202812370352E+00
   0.1502190678978128E-31
   0.9574649706912486E+00
  -0.1788241073849530E-31
   0.9414971310210122E+00
   0.1314199484671491E-31
   0.1037119050552940E+01
  -0.2075618299971389E-30
   0.9258166083500963E+00
  -0.3401752252354692E-31
   0.9322402496790915E+00
  -0.7674207917479220E-31
   0.9538058253073342E+00
  -0.3489748562325746E-31
   0.9520452717010937E+00
  -0.4171330874222135E-31
   0.9351035433476984E+00
  -0.1567348335159543E-31
   0.9565496449258211E+00
  -0.2962286668771433E-31
   0.9378638716755936E+00
  -0.1486939951967998E-32
   0.9303460519872354E+00
  -0.2936548176960861E-31
   0.9446467733343991E+00
   0.1257888806041610E-31
   0.8862352680537313E+00
   0.5292302000298763E-31
   0.9424046351264332E+00
   0.1081191112601864E-30
   0.9637013741826652E+00
  -0.3482002042306070E-31
   0.1008356272044576E+01
  -0.1320219044942863E-32
   0.1006712429709219E+01
   0.1297318091005753E-32
   0.1001958930206332E+01
  -0.1468366602860835E-32
   0.1003217522116620E+01
  -0.4892409032918838E-32
   0.1004120115974275E+01
  -0.6469113531375560E-32
   0.1005208064902693E+01
  -0.5564399479310656E-32
   0.1004249961604085E+01
  -0.1802699866857382E-32
   0.1008268330106420E+01
  -0.4612036135915558E-32
   0.1023869441006111E+01
   0.4401466675017959E-33
   0.1063755461250483E+01
   0.3369728210055485E-32
   0.1019394088225140E+01
   0.2549105377497752E-32
   0.1001777911844790E+01
  -0.2389864648552616E-32
   0.9645774231629963E+00
  -0.5007782494942869E-31
   0.1005263328272339E+01
  -0.4528993171490931E-32
   0.1000745736275467E+01
  -0.6736924919618183E-33
   0.1008696549290154E+01
  -0.3737980223787349E-32
   0.1008037948454737E+01
   0.1511580692913458E-32
   0.1002353862048220E+01
  -0.4724772456133157E-32
   0.9980195530497832E+00
  -0.2360602299472331E-32
   0.1000592769358024E+01
  -0.3289514875193332E-32
   0.1001620641860908E+01
  -0.4554855497496668E-32
   0.9828039326488854E+00
  -0.1135559702612918E-31
   0.9843899726758870E+00
  -0.8360029192482395E-32
   0.9834136048390518E+00
  -0.4733372431204929E-31
   0.9790327232204076E+00
  -0.3586502083131636E-31
   0.9904757376071556E+00
  -0.1230853165355833E-31
   0.9935193468945460E+00
  -0.2614894720658151E-32
   0.1002008894348906E+01
  -0.1286898885880975E-32
   0.1002132240746333E+01
  -0.1236464686484605E-32
   0.1002273087521597E+01
  -0.7100226290065661E-33
   0.1001793578297627E+01
  -0.5490855208200825E-33
   0.1009816088028044E+01
   0.1298053685780444E-32
   0.1006507955582447E+01
  -0.3875899866851813E-32
   0.9561125617162410E+00
  -0.3365993390231893E-31
   0.9252807406699114E+00
  -0.3956040022408537E-31
   0.1007053966729442E+01
   0.7701779219166035E-33
   0.1004490981234251E+01
   0.8722824606983464E-34
   0.9145128351548231E+00
  -0.4174570681628446E-31
   0.9091570307031936E+00
  -0.2042561488188255E-31
   0.8752463079627728E+00
  -0.1988129893384124E-31
   0.9767979597400258E+00
  -0.1298079774914586E-31
   0.1000541360241271E+01
  -0.2765355854860332E-32
   0.1005826549297032E+01
   0.3753687454713947E-33
   0.1012896701668108E+01
   0.1001362993049341E-32
   0.1011680292166028E+01
   0.7244242600148494E-33
   0.1010415973639336E+01
   0.1112843149748198E-33
   0.1005456587395077E+01
   0.3299927171318927E-33
   0.9909167515194446E+00
  -0.7162257103495268E-32
   0.1005149610920476E+01
  -0.1645884580277126E-32
   0.9860895085448458E+00
  -0.2084164780574492E-32
   0.1005593206448349E+01
  -0.1807825360569708E-32
   0.1004239922232586E+01
  -0.2052520607248998E-32
   0.1002885969213539E+01
  -0.1680771350791174E-32
   0.1003350063078672E+01
  -0.1850814598248527E-32
   0.1003997944127783E+01
  -0.2025733607705500E-32
   0.1005115344747171E+01
  -0.5167190538361681E-32
   0.1003223209693251E+01
  -0.5847642496324142E-32
   0.1002669123762143E+01
  -0.4083145040908228E-32
   0.1002589508056726E+01
  -0.4180590235625013E-32
   0.1004069040374651E+01
  -0.3733398051753628E-32
   0.1004304991187497E+01
  -0.4571198947116481E-32
   0.1001643157086112E+01
  -0.3316477203134449E-32
   0.1002279136441716E+01
  -0.3841457975558362E-32
   0.1002546782023258E+01
  -0.3711249661197340E-32
   0.1003472000596599E+01
  -0.5345476872954290E-32
   0.1003380240375056E+01
  -0.5306870076827418E-32
   0.1003233137295745E+01
  -0.2892386694397484E-32
   0.1004429899220602E+01
  -0.5442574678890165E-32
   0.1004324039413656E+01
  -0.5630343723677013E-32
   0.1003653018136012E+01
  -0.3701265966427902E-32
   0.1003718560688337E+01
  -0.5517762605406205E-32
   0.1004319243042317E+01
  -0.5867641046716356E-32
   0.1004462563047814E+01
  -0.6191704704234937E-32
   0.1003629396212598E+01
  -0.5732793437457718E-32
   0.1064485256925862E+01
  -0.6168873485155950E-32
   0.1028442061791159E+01
   0.2142382261509310E-32
   0.1009605873439279E+01
  -0.3222380007904986E-32
   0.1006626987278508E+01
  -0.3720443514125609E-32
   0.1163967546375366E+01
  -0.4691744705654122E-31
   0.1086026686831149E+01
  -0.2900713332422892E-32
   0.1007907087193683E+01
  -0.3542416083163992E-32
   0.1007251825931851E+01
  -0.3822307408023246E-32
   0.1006796456312587E+01
  -0.3647498288944256E-32
   0.1013053883282960E+01
  -0.2669903666905187E-32
   0.1019340792084348E+01
   0.3038530439660123E-32
   0.1235123173296937E+01
  -0.1137411829027879E-30
   0.1032535565188193E+01
   0.5374152024251802E-32
   0.1046565480923014E+01
   0.8897350385930688E-32
   0.1201701822065838E+01
  -0.2041248025468946E-31
   0.1014672138144692E+01
  -0.2586216301086125E-32
   0.1032297498308779E+01
   0.4148531559171287E-32
   0.1028222183339029E+01
   0.3282075284518520E-32
   0.1014640520410393E+01
  -0.1077374344599555E-32
   0.1028986926999590E+01
  -0.6003582653845743E-33
   0.1002003667366123E+01
  -0.2310346684401289E-32
   0.9608147831467846E+00
  -0.4501963319818848E-31
   0.1006858072237331E+01
  -0.3902831516568330E-32
   0.1001324898680812E+01
  -0.6150470393668109E-32
   0.1010798261833098E+01
  -0.1808667004030283E-32
   0.1012231336352408E+01
  -0.4506438058582596E-32
   0.1000939569587683E+01
  -0.4606092870977957E-32
   0.9979357843527765E+00
  -0.4919484581655598E-32
   0.9980690509294778E+00
  -0.4007942345619924E-32
   0.1001192040826660E+01
  -0.4325793842617316E-32
   0.9842100790527800E+00
  -0.2063385649669729E-31
   0.9815228436099773E+00
  -0.1482315510218281E-31
   0.9648740509480154E+00
  -0.4544621316598713E-31
   0.9680944437809086E+00
  -0.4916616531685309E-31
   0.9914084286458346E+00
  -0.1964540593704395E-31
   0.9910913083040933E+00
  -0.6075834772472733E-32
   0.9925587124658173E+00
  -0.5687696656659682E-32
   0.1001727549514460E+01
  -0.3481299508267671E-32
   0.9993245747404540E+00
  -0.3737737066623871E-32
   0.9941434371398435E+00
  -0.5613620727832792E-32
   0.1006982475141518E+01
   0.4508119327299467E-33
   0.1022613019618814E+01
   0.5287019106075521E-32
   0.1001120639139826E+01
  -0.2122940711027211E-31
   0.1008783935583623E+01
  -0.3685080454716757E-32
   0.1004774772921629E+01
  -0.4072051134771034E-32
   0.1009030410931127E+01
  -0.2869757155621447E-32
   0.9967211493817795E+00
  -0.5974089308156015E-32
   0.1005570715442379E+01
  -0.2353997790836123E-32
   0.1003324760114409E+01
  -0.5026552628584654E-32
   0.9949845984910579E+00
  -0.3836814975896967E-32
   0.9833501663091327E+00
  -0.8756224911270683E-32
   0.9944494689151818E+00
  -0.5033881910771689E-32
   0.9973474193055510E+00
  -0.3733713114188366E-32
   0.9932503760543262E+00
  -0.5536561437465151E-32
   0.1001311884907192E+01
  -0.4117497183108864E-32
   0.1003000708376499E+01
  -0.4469764519358887E-32
   0.1002188291593394E+01
  -0.4060306525511344E-32
   0.9947120026402702E+00
  -0.3102673713746269E-32
   0.9937832198058902E+00
  -0.3583557997303373E-32
   0.1004861704669089E+01
  -0.4838299753030256E-32
   0.1020101282070933E+01
  -0.6998556990222506E-32
   0.1005337229999540E+01
  -0.1030188644144602E-31
   0.9817045977668692E+00
  -0.1686943164132329E-31
   0.1004974596062022E+01
  -0.4655042188087580E-32
   0.1012374662656632E+01
  -0.2246194925033972E-32
   0.9873720328712973E+00
  -0.2688580032239026E-31
   0.9551284413727434E+00
  -0.1184411975429901E-32
   0.9865253756904393E+00
  -0.1926656606721984E-31
   0.9865916534806169E+00
  -0.1248923016975834E-31
   0.9920067167869896E+00
  -0.4788190534622156E-31
   0.9934435620810997E+00
  -0.2361984992926081E-31
   0.9960682553859485E+00
  -0.5866037925578920E-31
   0.1037400105928238E+01
  -0.1613050101162047E-31
   0.1033161102224421E+01
  -0.7995237094755172E-32
   0.1001442942589736E+01
  -0.2749511699144707E-32
   0.1001928635177846E+01
  -0.4777727549940603E-32
   0.9912313107685990E+00
  -0.3043420267418245E-32
   0.9911145322900067E+00
  -0.8045922544731304E-32
   0.9649433996998376E+00
  -0.1821598902331401E-31
   0.9933790316918689E+00
  -0.4469841902233624E-32
   0.1006090796374787E+01
  -0.4566684158467081E-33
   0.1001963018637846E+01
  -0.1176964971947824E-32
   0.9908628976461831E+00
  -0.6794531716588895E-32
   0.9742169955149849E+00
  -0.1689458631595743E-31
   0.9420656172342124E+00
  -0.3347032169480679E-31
   0.9821543954956460E+00
  -0.2440251758191480E-31
   0.9794783302236082E+00
  -0.1144631610038860E-31
   0.9704368616040724E+00
  -0.1548709860371465E-31
   0.9720887189880951E+00
  -0.3528336199981024E-31
   0.9557898415004448E+00
  -0.1215020783483082E-31
   0.9498086706709976E+00
  -0.3122557754032789E-31
   0.9529904616788067E+00
  -0.4051517420293416E-31
   0.1002635788495346E+01
  -0.3554145203493528E-32
   0.1002475631460847E+01
  -0.4746864121128535E-32
   0.1000513073316777E+01
  -0.3039991074937939E-32
   0.1001674838578138E+01
  -0.1517752674366135E-32
   0.9610035232184811E+00
  -0.3574722347309221E-31
   0.9492443247445129E+00
  -0.6631866395454470E-31
   0.9586632960126045E+00
  -0.3154410829817822E-31
   0.1001121360678776E+01
  -0.4384674915335654E-32
   0.1000501199843980E+01
  -0.3466182280792817E-32
   0.1001159801540806E+01
  -0.2027848402724777E-32
   0.9807420384796767E+00
  -0.1683753322297894E-31
   0.9805568735450497E+00
  -0.2124757813625125E-31
   0.9629217552733901E+00
  -0.2912348115246006E-31
SCALARS u double 1
LOOKUP_TABLE default
   0.0000000000000000E+00
   0.0000000000000000E+00
   0.0000000000000000E+00
   0.0000000000000000E+00
   0.0000000000000000E+00
   0.0000000000000000E+00
   0.0000000000000000E+00
   0.0000000000000000E+00
   0.0000000000000000E+00
   0.0000000000000000E+00
   0.0000000000000000E+00
   0.0000000000000000E+00
   0.0000000000000000E+00
   0.0000000000000000E+00
   0.0000000000000000E+00
   0.0000000000000000E+00
   0.0000000000000000E+00
   0.0000000000000000E+00
   0.0000000000000000E+00
   0.0000000000000000E+00
   0.0000000000000000E+00
   0.0000000000000000E+00
   0.0000000000000000E+00
   0.0000000000000000E+00
   0.0000000000000000E+00
   0.0000000000000000E+00
   0.0000000000000000E+00
   0.0000000000000000E+00
   0.0000000000000000E+00
   0.0000000000000000E+00
   0.0000000000000000E+00
   0.0000000000000000E+00
   0.0000000000000000E+00
   0.0000000000000000E+00
   0.0000000000000000E+00
   0.0000000000000000E+00
   0.0000000000000000E+00
   0.0000000000000000E+00
   0.0000000000000000E+00
   0.0000000000000000E+00
   0.0000000000000000E+00
   0.0000000000000000E+00
   0.0000000000000000E+00
   0.0000000000000000E+00
   0.0000000000000000E+00
   0.0000000000000000E+00
   0.0000000000000000E+00
   0.0000000000000000E+00
   0.0000000000000000E+00
   0.0000000000000000E+00
   0.0000000000000000E+00
   0.0000000000000000E+00
   0.0000000000000000E+00
   0.0000000000000000E+00
   0.0000000000000000E+00
   0.0000000000000000E+00
   0.0000000000000000E+00
   0.0000000000000000E+00
   0.0000000000000000E+00
   0.0000000000000000E+00
   0.0000000000000000E+00
   0.0000000000000000E+00
   0.0000000000000000E+00
   0.0000000000000000E+00
   0.0000000000000000E+00
   0.0000000000000000E+00
   0.4945973678104553E+00
  -0.2504829231144604E-31
   0.5336248050522219E+00
  -0.9236851733425618E-32
   0.5182740404550882E+00
  -0.3131483447534832E-32
   0.4930714246725839E+00
  -0.7165179931266095E-34
   0.4847754205056374E+00
   0.8344630989285806E-32
   0.4868132653356091E+00
   0.1285698875947778E-31
   0.4891430744273420E+00
   0.1140475663151609E-31
   0.4958009013999892E+00
   0.1942068248826201E-32
   0.4899007394801116E+00
   0.6904916737342755E-32
   0.4718072596332794E+00
   0.2271036809637119E-33
   0.4448872821970005E+00
  -0.4956103620567380E-32
   0.4844369958683606E+00
   0.5356577074458494E-31
   0.5097703333311655E+00
  -0.6426189845642366E-33
   0.4401859475349411E+00
   0.9160613313738351E-31
   0.4949587097186635E+00
   0.5818838760503300E-32
   0.5223003573206967E+00
  -0.5215053813855115E-32
   0.4962747030733684E+00
   0.2729569512268365E-32
   0.5223832221988542E+00
  -0.1083581751444039E-31
   0.5038168244750396E+00
   0.3053100863512934E-32
   0.5644336963915026E+00
  -0.3176430936439385E-32
   0.5245894641983314E+00
  -0.3418081107931194E-32
   0.4990985097716769E+00
   0.3634257716814267E-32
   0.5729201586902353E+00
   0.1632419739455904E-31
   0.5693592828691576E+00
  -0.6388170603039390E-33
   0.3752192377629148E+00
   0.9373934444160014E-31
   0.4003638955743290E+00
   0.6331490704976680E-31
   0.5599389981225192E+00
   0.3108858722898683E-31
   0.5562259014209363E+00
  -0.1472839317025536E-32
   0.4942640825318972E+00
  -0.1222787774578982E-32
   0.4948651958965544E+00
  -0.2349173391475588E-32
   0.4925619071369903E+00
  -0.3794230702309231E-32
   0.4913967782803493E+00
  -0.2316317202521153E-32
   0.5162597182183621E+00
  -0.6606830992409032E-33
   0.5363670730384201E+00
   0.5455266757296953E-32
   0.4951374106567409E+00
  -0.4948570918094956E-32
   0.4520512890320829E+00
  -0.3405761287213558E-31
   0.5129007652645525E+00
  -0.1329507138033393E-32
   0.5117699763439990E+00
  -0.2587057284559860E-32
   0.4786317418668047E+00
  -0.1180539022461916E-31
   0.4931122297851707E+00
  -0.3456660404956623E-31
   0.4600270411507066E+00
  -0.7818836366199502E-31
   0.5242595707302306E+00
  -0.2535997455793433E-31
   0.5299947205784162E+00
  -0.3418880544318528E-32
   0.5129700677648908E+00
  -0.4540292825492741E-32
   0.5328928660743951E+00
   0.1345097615607872E-32
   0.5309782654293884E+00
   0.3326784812719975E-32
   0.5309767611422191E+00
  -0.2767224482887664E-32
   0.5063651340503292E+00
  -0.4150532170446417E-32
   0.5279536185375590E+00
  -0.1519666601203543E-31
   0.5409238855072619E+00
  -0.4821857929671516E-32
   0.5363719066790654E+00
  -0.1521202302928864E-31
   0.5374201319945979E+00
  -0.6352637720484296E-32
   0.4965358979109498E+00
   0.7786763260806868E-33
   0.4975364856906154E+00
   0.6560542195247903E-33
   0.4963815197051012E+00
   0.2131812755559488E-32
   0.4955155009818911E+00
   0.1995631032316188E-32
   0.4904172548493947E+00
   0.9747507025992542E-32
   0.4902500217792696E+00
   0.1083628038054510E-31
   0.4861611309722624E+00
   0.5924017143149616E-32
   0.4854067564183187E+00
   0.5624927656955075E-32
   0.4931955989642928E+00
   0.7482049804936685E-32
   0.4910329667936883E+00
   0.9829446132557365E-32
   0.4831677513610528E+00
   0.2548206514154058E-32
   0.4872468806502382E+00
   0.3596783260763257E-32
   0.4880024273821619E+00
   0.3472703697907382E-32
   0.4872312392890114E+00
   0.8902589676130958E-32
   0.4882163845919933E+00
   0.1067925974290571E-31
   0.4952576817168023E+00
   0.6042559207451613E-32
   0.4900721164406435E+00
   0.1213855369663794E-31
   0.4903599279042281E+00
   0.1135215444952014E-31
   0.4944353026091596E+00
   0.8087373029030127E-32
   0.4868191758692687E+00
   0.1037965003528241E-31
   0.4892735512138638E+00
   0.1174742200547065E-31
   0.4881467930728215E+00
   0.1259425513775018E-31
   0.4878252396085216E+00
   0.1050169735844151E-31
   0.4449106780014301E+00
  -0.4106865101504242E-32
   0.4700132875184418E+00
  -0.1581892022316585E-32
   0.4891774917469477E+00
   0.3421855522728245E-32
   0.4885974634682618E+00
   0.8942147614959151E-32
   0.4510294628040619E+00
   0.3546074957532977E-31
   0.4681803399586391E+00
  -0.1277131499694527E-31
   0.4876666907154492E+00
   0.5616064939249430E-32
   0.4868262750090758E+00
   0.8284803544370544E-32
   0.4909268404136390E+00
   0.6382839309361492E-32
   0.4793945543457308E+00
   0.6164714038727452E-32
   0.4657906777213470E+00
  -0.3733537105069092E-32
   0.3794391075094423E+00
   0.3591395937876001E-31
   0.4903637343844311E+00
  -0.4087918844622992E-31
   0.4487969161865245E+00
  -0.1380697374507170E-31
   0.4432386725512659E+00
   0.1236230126674603E-31
   0.4845716407441602E+00
   0.3620966517516256E-32
   0.4621867851104869E+00
  -0.6554410381635295E-32
   0.4663606659231973E+00
  -0.3098489766504605E-31
   0.4747787029546108E+00
   0.2523104932722787E-32
   0.4893811124177357E+00
   0.5096341486947134E-31
   0.5085638676813725E+00
  -0.3638397132281578E-33
   0.4305372591507879E+00
   0.4073420037940579E-31
   0.4927298036611986E+00
   0.4985705780048023E-32
   0.5320327256122566E+00
  -0.5116825082020479E-32
   0.4913855406341632E+00
   0.9644274841910635E-33
   0.5209473688350379E+00
  -0.2235583210947909E-32
   0.5061309364996456E+00
   0.1672406276445023E-32
   0.5690650993919495E+00
   0.1122597436172137E-31
   0.5274990552034993E+00
   0.4059359838445529E-33
   0.5015024129568674E+00
   0.3365585924073344E-32
   0.5821782454629333E+00
   0.3581008170437684E-31
   0.5691769250211663E+00
   0.1983272896994109E-31
   0.3403300368287036E+00
   0.1004088410606356E-30
   0.3786151439692652E+00
  -0.1186138849995282E-31
   0.5753346481747242E+00
   0.5551210736117348E-31
   0.5668543263572613E+00
   0.9988071572884986E-32
   0.5703059562534347E+00
  -0.4924338389196098E-32
   0.5291879205950164E+00
  -0.8599422929127507E-32
   0.5449837175765069E+00
  -0.1358203268930243E-31
   0.5719102639587518E+00
   0.7506933489851133E-32
   0.5385667386739839E+00
  -0.2199660891707349E-31
   0.5475905556227014E+00
   0.2252602991580994E-31
   0.5821515963410866E+00
   0.3436940404604841E-31
   0.4925318968534163E+00
  -0.6088729018520644E-32
   0.5041571115921829E+00
   0.1075816312611794E-32
   0.4961293265016677E+00
  -0.2294776493044401E-32
   0.5562736233263741E+00
   0.4200941363685509E-32
   0.4757837005645296E+00
  -0.3959292140836146E-31
   0.4950183184502193E+00
   0.6361811821736628E-32
   0.5496188055873322E+00
  -0.7029316433970803E-32
   0.5889517159310910E+00
   0.2028614299771073E-31
   0.5839552612732601E+00
   0.1370331151406521E-32
   0.5468175663604735E+00
  -0.4319130900454714E-32
   0.5803880219187401E+00
   0.9789053939085180E-33
   0.5106065646590702E+00
  -0.1881479053436525E-32
   0.5029552653032576E+00
   0.7252677044468942E-33
   0.5033112976875194E+00
   0.1002294886677407E-32
   0.5676222186353430E+00
   0.1966978278495944E-32
   0.5564619505290016E+00
  -0.1970106837121719E-32
   0.4947144959326836E+00
   0.2845423770404910E-32
   0.5506785365918604E+00
  -0.1676775483353356E-31
   0.5513581031282925E+00