title="tecplot geometry and solution file"
variables = x y z rho u v w p mach temperature
zone t="boundary 1 bc-1", solutiontime= 0.1000000E+02, strandid=1001, i=32, j=46, f=feblock
 -0.547468544169E-02  0.124402513262E-17 -0.567606031243E-02  0.124402513262E-17  0.124402513262E-17  0.124402513262E-17 -0.525159244851E-02
 -0.425776897977E-02  0.124402513262E-17  0.124402513262E-17  0.124402513262E-17  0.124402513262E-17  0.124402513262E-17  0.124402513262E-17
  0.124402513262E-17  0.124402513262E-17 -0.338395986572E-02  0.124402513262E-17  0.124402513262E-17  0.124402513262E-17  0.124402513262E-17
  0.124402513262E-17  0.124402513262E-17  0.124402513262E-17  0.124402513262E-17  0.124402513262E-17  0.124402513262E-17  0.124402513262E-17
  0.124402513262E-17  0.124402513262E-17  0.124402513262E-17  0.124402513262E-17
  0.250494197117E+01  0.250494197117E+01  0.127822156907E+01  0.146289271009E+01  0.157686156160E+01  0.308372018325E+00  0.261948602442E-01
 -0.122573481164E+01 -0.600232012419E+00  0.250494197117E+01  0.477386199275E+00  0.742988685424E+00 -0.739814786992E+00  0.177790177481E+01
  0.155830813274E+01  0.250494197117E+01 -0.249658903664E+01 -0.154800130438E+01 -0.487811078581E+00  0.250494197117E+01  0.627766083140E+00
 -0.345533899378E+00 -0.178862290564E+01 -0.158811787973E+01  0.125000000000E+01 -0.249658903664E+01 -0.144524380962E+01  0.124402513262E-17
 -0.125000000000E+01 -0.249658903664E+01 -0.249658903664E+01 -0.249658903664E+01
  0.803813859867E-04  0.125000000000E+01  0.822460170215E-04  0.103724302461E+01  0.219251206392E+01  0.922061490191E+00  0.103872438719E-03
  0.341545874230E-04  0.715990576545E+00  0.250000000000E+01  0.202479342020E+01  0.324151231464E+01  0.175434191980E+01  0.310152362409E+01
  0.404200324774E+01  0.375000000000E+01  0.810725962649E-04  0.930412228790E+00  0.299062775774E+01  0.500000000000E+01  0.429310310915E+01
  0.409252726285E+01  0.187029682677E+01  0.284428995242E+01  0.500000000000E+01  0.125000000000E+01  0.394624082883E+01  0.500000000000E+01
  0.500000000000E+01  0.250000000000E+01  0.375000000000E+01  0.500000000000E+01
  0.134579654196E+01  0.106310044630E+01  0.142645995475E+01  0.108600054423E+01  0.103190470119E+01  0.120121770588E+01  0.164490648278E+01
  0.149366463621E+01  0.123484110649E+01  0.102373438024E+01  0.102850451273E+01  0.101302994600E+01  0.103299818136E+01  0.101446837072E+01
  0.100651642936E+01  0.100812056738E+01  0.144690045329E+01  0.116342431624E+01  0.101487209182E+01  0.100300785963E+01  0.100672208639E+01
  0.100732162037E+01  0.104648765499E+01  0.101923365995E+01  0.100388684883E+01  0.106502038074E+01  0.100784615090E+01  0.100322259600E+01
  0.100343939790E+01  0.102863032205E+01  0.100957106942E+01  0.100375273511E+01
  0.000000000000E+00  0.445749875990E+00  0.000000000000E+00  0.467010969410E+00  0.463469442208E+00  0.443739054354E+00  0.000000000000E+00
  0.000000000000E+00  0.379568796740E+00  0.472122830512E+00  0.466852715057E+00  0.479458333343E+00  0.489860074420E+00  0.484555905849E+00
  0.488091380626E+00  0.489727449553E+00  0.000000000000E+00  0.451222244524E+00  0.474771967829E+00  0.496327071756E+00  0.491025234876E+00
  0.486765406156E+00  0.449466402148E+00  0.466773223462E+00  0.497485592511E+00  0.445505134231E+00  0.487515744582E+00  0.498111377929E+00
  0.496779190938E+00  0.469842509844E+00  0.489121350835E+00  0.495721717224E+00
  0.000000000000E+00  0.000000000000E+00  0.000000000000E+00  0.171595047345E-01 -0.213964265805E-02  0.325095309873E-01  0.000000000000E+00
  0.000000000000E+00 -0.693143861636E-02  0.000000000000E+00  0.417850769950E-02 -0.516948382737E-02 -0.424804923188E-02  0.487171759446E-04
 -0.794540863066E-03  0.000000000000E+00  0.000000000000E+00 -0.800091496292E-02  0.437518284468E-03  0.000000000000E+00 -0.211833440531E-02
 -0.137665218991E-02  0.159424655094E-02 -0.189651622241E-02 -0.439437485189E-03  0.000000000000E+00 -0.224058117709E-03 -0.424263490033E-03
  0.823278517785E-03  0.000000000000E+00  0.000000000000E+00  0.000000000000E+00
  0.000000000000E+00  0.456619294861E-01  0.000000000000E+00  0.122555001070E+00  0.246549708091E-01  0.166035908127E+00  0.000000000000E+00
  0.000000000000E+00  0.156423086614E+00  0.371659905107E-02  0.268922362146E-01 -0.604532181104E-02  0.757048983104E-01  0.395469252595E-02
  0.316534207076E-03  0.888728253438E-03  0.000000000000E+00  0.140844067781E+00 -0.762721803929E-02  0.449702452127E-02  0.216652921804E-03
 -0.422461517467E-02  0.259714169998E-01 -0.133809963444E-02  0.447418769141E-02  0.845147549394E-01 -0.110909060823E-02  0.318991907532E-02
  0.319343645529E-02  0.273138925066E-02 -0.869623359801E-03  0.446552039303E-02
  0.961273920155E+00  0.782065664474E+00  0.101889055571E+01  0.808174896759E+00  0.745943741809E+00  0.879730248215E+00  0.117492312171E+01
  0.106689495886E+01  0.916106095365E+00  0.737235022494E+00  0.743815059946E+00  0.725796598056E+00  0.757563885461E+00  0.729007278887E+00
  0.720574796668E+00  0.722600331414E+00  0.103349280422E+01  0.857677639377E+00  0.728190521661E+00  0.718029225416E+00  0.721014002615E+00
  0.721166745932E+00  0.759911816839E+00  0.732630906127E+00  0.718477969058E+00  0.791123571571E+00  0.722096170192E+00  0.717601402230E+00
  0.717830984842E+00  0.741815041035E+00  0.724013284213E+00  0.718449583079E+00
  0.000000000000E+00  0.441529317004E+00  0.000000000000E+00  0.473326956429E+00  0.461362287247E+00  0.469000617942E+00  0.000000000000E+00
  0.000000000000E+00  0.402886637698E+00  0.470213512919E+00  0.464754021699E+00  0.478795751382E+00  0.489203395729E+00  0.483111819084E+00
  0.487538242552E+00  0.488875534592E+00  0.000000000000E+00  0.465354884776E+00  0.473762208483E+00  0.495795841209E+00  0.490373312545E+00
  0.486228053101E+00  0.446524413329E+00  0.465309101147E+00  0.497015436237E+00  0.444654701628E+00  0.486771785910E+00  0.497769772855E+00
  0.496413314510E+00  0.467603197514E+00  0.488144578683E+00  0.495229799784E+00
  0.999990300362E+00  0.102990449687E+01  0.999990762612E+00  0.104184556949E+01  0.101203263957E+01  0.102531151636E+01  0.999991420552E+00
  0.999992171067E+00  0.103863446623E+01  0.100820002866E+01  0.101248081174E+01  0.100304560718E+01  0.102670988080E+01  0.100605422495E+01
  0.100227347106E+01  0.100349154329E+01  0.999992724186E+00  0.103208148426E+01  0.100452730797E+01  0.100222635938E+01  0.100267950540E+01
  0.100229502067E+01  0.101661642973E+01  0.100632789995E+01  0.100197463275E+01  0.103995474662E+01  0.100306444328E+01  0.100141480777E+01
  0.100151875727E+01  0.100963488552E+01  0.100400915656E+01  0.100206891710E+01
        12        19        11        11
        11         5        12        12
        10        14         5         5
        19        13        11        11
        19        24        13        13
        30        23        24        24
        19        12        22        22
        28        22        21        21
        11        13         6         6
         7         6         9         9
        15        12        14        14
        18        13        23        23
        15        25        21        21
        27        19        22        22
        18         8         9         9
        27        31        24        24
         4        11         6         6
         5        14        12        12
         4         2         5         5
        21        12        15        15
        14        16        15        15
        24        19        27        27
        22        29        27        27
        23        26        18        18
        17         8        18        18
         5        11         4         4
         6         3         4         4
        26        23        30        30
         5         2        10        10
        16        14        10        10
         3         6         7         7
        21        25        28        28
        29        22        28        28
         6        13         9         9
         2         4         1         1
        31        27        32        32
        25        15        20        20
        24        23        13        13
         8         7         9         9
        13        18         9         9
        31        30        24        24
        12        21        22        22
        29        32        27        27
         3         1         4         4
        26        17        18        18
        16        20        15        15
zone t="boundary 2 bc-2", solutiontime= 0.1000000E+02, strandid=1002, i=33, j=48, f=feblock
  0.500195253374E+01  0.375034811161E+01  0.249861146299E+01  0.288036674177E+01  0.124717526933E+01  0.190856698521E+01  0.326577190273E+01
  0.201394856120E+01 -0.338395986572E-02  0.962374249381E+00  0.500000000000E+01  0.403430190008E+01  0.423029563807E+01  0.500000000000E+01
  0.385439188940E+01  0.500000000000E+01  0.398133433176E+01  0.315200081417E+01  0.266958028869E+01  0.154798029824E+01  0.218327860466E+01
  0.893688440338E+00  0.124402513262E-17  0.699009761768E+00  0.964460899052E+00  0.310303671659E+01  0.124402513262E-17  0.124402513262E-17
  0.125000000000E+01  0.500000000000E+01  0.375000000000E+01  0.250000000000E+01  0.124402513262E-17
 -0.249658903664E+01 -0.249658903664E+01 -0.249658903664E+01 -0.249658903664E+01 -0.249658903664E+01 -0.249658903664E+01 -0.249658903664E+01
 -0.249658903664E+01 -0.249658903664E+01 -0.249658903664E+01 -0.249658903664E+01 -0.249658903664E+01 -0.249658903664E+01 -0.249658903664E+01
 -0.249658903664E+01 -0.249658903664E+01 -0.249658903664E+01 -0.249658903664E+01 -0.249658903664E+01 -0.249658903664E+01 -0.249658903664E+01
 -0.249658903664E+01 -0.249658903664E+01 -0.249658903664E+01 -0.249658903664E+01 -0.249658903664E+01 -0.249658903664E+01 -0.249658903664E+01
 -0.249658903664E+01 -0.249658903664E+01 -0.249658903664E+01 -0.249658903664E+01 -0.249658903664E+01
  0.108225889030E-03  0.145875369682E-03  0.100893326425E-03  0.901663374396E+00  0.110858761917E-03  0.714928318829E+00  0.188140648011E+01
  0.175892165504E+01  0.810725962649E-04  0.957504300331E+00  0.125000000000E+01  0.100596698996E+01  0.191313519089E+01  0.250000000000E+01
  0.292898096716E+01  0.375000000000E+01  0.406883369524E+01  0.363389289944E+01  0.284756860985E+01  0.292582308120E+01  0.395754054931E+01
  0.205027256979E+01  0.125000000000E+01  0.306703272692E+01  0.397155766662E+01  0.433068622168E+01  0.250000000000E+01  0.375000000000E+01
  0.500000000000E+01  0.500000000000E+01  0.500000000000E+01  0.500000000000E+01  0.500000000000E+01
  0.831980615108E+00  0.937081513317E+00  0.935654436095E+00  0.968920814569E+00  0.961410252133E+00  0.965408728441E+00  0.983931981544E+00
  0.991400028110E+00  0.144690045329E+01  0.102885949137E+01  0.956208434752E+00  0.962314908527E+00  0.980935367322E+00  0.100482279960E+01
  0.997443602725E+00  0.100970373369E+01  0.100232290245E+01  0.997928081907E+00  0.991356826112E+00  0.100156298323E+01  0.100107833722E+01
  0.101225476067E+01  0.106502038074E+01  0.101060010182E+01  0.100683122403E+01  0.100117248343E+01  0.102863032205E+01  0.100957106942E+01
  0.100530796134E+01  0.100464400694E+01  0.100443117208E+01  0.100328172020E+01  0.100375273511E+01
  0.000000000000E+00  0.000000000000E+00  0.000000000000E+00  0.379547039168E+00  0.000000000000E+00  0.341056760539E+00  0.580213765358E+00
  0.573845386472E+00  0.000000000000E+00  0.489277134245E+00  0.496128230692E+00  0.432990932467E+00  0.567947375483E+00  0.536104204221E+00
  0.567073591947E+00  0.516442760556E+00  0.508584872061E+00  0.528272600736E+00  0.566549815843E+00  0.533148724936E+00  0.506484398132E+00
  0.520948269088E+00  0.445505134231E+00  0.491869992612E+00  0.492620181403E+00  0.501345399236E+00  0.469842509844E+00  0.489121350835E+00
  0.487821398125E+00  0.491941336890E+00  0.485639731554E+00  0.487563859385E+00  0.495721717224E+00
  0.000000000000E+00  0.000000000000E+00  0.000000000000E+00  0.000000000000E+00  0.000000000000E+00  0.000000000000E+00  0.000000000000E+00
  0.000000000000E+00  0.000000000000E+00  0.000000000000E+00  0.000000000000E+00  0.000000000000E+00  0.000000000000E+00  0.000000000000E+00
  0.000000000000E+00  0.000000000000E+00  0.000000000000E+00  0.000000000000E+00  0.000000000000E+00  0.000000000000E+00  0.000000000000E+00
  0.000000000000E+00  0.000000000000E+00  0.000000000000E+00  0.000000000000E+00  0.000000000000E+00  0.000000000000E+00  0.000000000000E+00
  0.000000000000E+00  0.000000000000E+00  0.000000000000E+00  0.000000000000E+00  0.000000000000E+00
  0.000000000000E+00  0.000000000000E+00  0.000000000000E+00 -0.232757602705E-02  0.000000000000E+00  0.183175893600E-01  0.114019262647E-01
  0.448071923357E-01  0.000000000000E+00  0.863064919229E-01 -0.967085492128E-01 -0.216123721930E-01 -0.301680651889E-01 -0.405519897421E-01
 -0.704145420076E-03  0.144621788565E-02  0.149241583554E-02  0.182819378209E-02  0.153396964546E-01  0.288286078393E-01  0.619223086655E-02
  0.554716839237E-01  0.845147549394E-01  0.112046048643E-01  0.662552122589E-02  0.668026837720E-04  0.273138925066E-02 -0.869623359801E-03
  0.372287193378E-02  0.526861394077E-02  0.880430519094E-03  0.936366108191E-03  0.446552039303E-02
  0.594267998324E+00  0.669339715154E+00  0.668320282669E+00  0.684585154695E+00  0.686716897106E+00  0.679354870401E+00  0.696052492905E+00
  0.702361933690E+00  0.103349280422E+01  0.723259256823E+00  0.672969649024E+00  0.676558773476E+00  0.694036082961E+00  0.720006969438E+00
  0.712601201902E+00  0.724664927061E+00  0.716600460308E+00  0.713244604062E+00  0.706658023796E+00  0.717792296536E+00  0.715723740588E+00
  0.730905014425E+00  0.791123571571E+00  0.724252447502E+00  0.721063146535E+00  0.715505339687E+00  0.741815041035E+00  0.724013284213E+00
  0.719803632107E+00  0.717748022478E+00  0.717431677888E+00  0.717305620647E+00  0.718449583079E+00
  0.000000000000E+00  0.000000000000E+00  0.000000000000E+00  0.381627937746E+00  0.000000000000E+00  0.344108489052E+00  0.583135380410E+00
  0.577955967449E+00  0.000000000000E+00  0.500813005257E+00  0.509221088693E+00  0.436979394201E+00  0.571458987087E+00  0.536785156779E+00
  0.567017730570E+00  0.515214691750E+00  0.508354386538E+00  0.528113225519E+00  0.567340214352E+00  0.533037871508E+00  0.506285896390E+00
  0.521066656562E+00  0.444654701628E+00  0.491183358680E+00  0.492015909838E+00  0.501211506478E+00  0.467603197514E+00  0.488144578683E+00
  0.487250192614E+00  0.491919797582E+00  0.485647014206E+00  0.487335021093E+00  0.495229799784E+00
  0.999993488485E+00  0.999993690942E+00  0.999993544242E+00  0.989161551865E+00  0.999993139053E+00  0.985175284356E+00  0.990387047423E+00
  0.991836472953E+00  0.999992724186E+00  0.984160585622E+00  0.985305582332E+00  0.984274767515E+00  0.990534696284E+00  0.100317166133E+01
  0.100019858761E+01  0.100478077284E+01  0.100091561510E+01  0.100061563933E+01  0.997946659826E+00  0.100334100998E+01  0.100093389255E+01
  0.101087894071E+01  0.103995474662E+01  0.100331815193E+01  0.100263915248E+01  0.100053436560E+01  0.100963488552E+01  0.100400915656E+01
  0.100240436135E+01  0.100020228511E+01  0.999973295295E+00  0.100094305387E+01  0.100206891710E+01
        15         7        19        19
         8        20        19        19
        18        19        21        21
         7         4         8         8
         3         6         4         4
        19         7         8         8
        19        18        15        15
        14        13        15        15
         8        22        20        20
        27        24        22        22
        19        20        21        21
        32        26        21        21
        17        18        26        26
        17        16        15        15
        25        29        21        21
        12         7        13        13
        10         8         6         6
        25        20        24        24
         4         6         8         8
        12         2         4         4
        10        23        22        22
        26        31        17        17
        30        16        17        17
         4         7        12        12
        13        11        12        12
        21        20        25        25
        24        28        25        25
        22         8        10        10
         6         5        10        10
        31        26        32        32
         4         2         3         3
         5         6         3         3
        11        13        14        14
        22        23        27        27
        28        24        27        27
        15        13         7         7
         2        12         1         1
        29        25        33        33
        23        10         9         9
        21        26        18        18
        16        14        15        15
        18        17        15        15
        29        32        21        21
        22        24        20        20
        28        33        25        25
        11         1        12        12
        31        30        17        17
         5         9        10        10
zone t="boundary 3 bc-3", solutiontime= 0.1000000E+02, strandid=1003, i=33, j=48, f=feblock
  0.375059096892E+01  0.249769609313E+01  0.500322133174E+01  0.403612218725E+01  0.287976772365E+01  0.124541910518E+01  0.190552237404E+01
  0.500000000000E+01  0.326671104552E+01  0.423253755448E+01  0.201271136506E+01 -0.547468544169E-02  0.958895643487E+00  0.500000000000E+01
  0.266968147299E+01  0.385584487271E+01  0.890374214836E+00  0.154654013699E+01  0.124402513262E-17  0.500000000000E+01  0.315261136744E+01
  0.218304199515E+01  0.398195307895E+01  0.124402513262E-17  0.697379952124E+00  0.963757277315E+00  0.125000000000E+01  0.124402513262E-17
  0.500000000000E+01  0.310330738524E+01  0.250000000000E+01  0.375000000000E+01  0.124402513262E-17
  0.250494197117E+01  0.250494197117E+01  0.250494197117E+01  0.250494197117E+01  0.250494197117E+01  0.250494197117E+01  0.250494197117E+01
  0.250494197117E+01  0.250494197117E+01  0.250494197117E+01  0.250494197117E+01  0.250494197117E+01  0.250494197117E+01  0.250494197117E+01
  0.250494197117E+01  0.250494197117E+01  0.250494197117E+01  0.250494197117E+01  0.250494197117E+01  0.250494197117E+01  0.250494197117E+01
  0.250494197117E+01  0.250494197117E+01  0.250494197117E+01  0.250494197117E+01  0.250494197117E+01  0.250494197117E+01  0.250494197117E+01
  0.250494197117E+01  0.250494197117E+01  0.250494197117E+01  0.250494197117E+01  0.250494197117E+01
  0.135649900494E-03  0.110129816467E-03  0.966887303890E-04  0.101756752009E+01  0.908094589218E+00  0.103942505801E-03  0.722629083213E+00
  0.125000000000E+01  0.188965661746E+01  0.191862696980E+01  0.176708239098E+01  0.803813859867E-04  0.969652551954E+00  0.250000000000E+01
  0.285339433501E+01  0.293325058812E+01  0.205656223819E+01  0.293157016932E+01  0.125000000000E+01  0.375000000000E+01  0.363766838842E+01
  0.396069444983E+01  0.407056385475E+01  0.250000000000E+01  0.307031995245E+01  0.397359820314E+01  0.500000000000E+01  0.375000000000E+01
  0.500000000000E+01  0.433260781310E+01  0.500000000000E+01  0.500000000000E+01  0.500000000000E+01
  0.944108811192E+00  0.947582004992E+00  0.843975528260E+00  0.966089275761E+00  0.980410712311E+00  0.957940728153E+00  0.984240166027E+00
  0.964282011047E+00  0.982948296041E+00  0.984220003188E+00  0.990775178841E+00  0.134579654196E+01  0.101933150355E+01  0.100736035900E+01
  0.993561242191E+00  0.997623333724E+00  0.100788726673E+01  0.100080338323E+01  0.106310044630E+01  0.100614349386E+01  0.100059548294E+01
  0.100250656326E+01  0.100183324617E+01  0.102373438024E+01  0.100879258525E+01  0.100540100257E+01  0.100527703694E+01  0.100812056738E+01
  0.100456341366E+01  0.100186921390E+01  0.100461385147E+01  0.100576640706E+01  0.100300785963E+01
  0.000000000000E+00  0.000000000000E+00  0.000000000000E+00  0.441832493953E+00  0.401146451657E+00  0.000000000000E+00  0.374395078731E+00
  0.495216621332E+00  0.571828928056E+00  0.568571369259E+00  0.558803186526E+00  0.000000000000E+00  0.483807732169E+00  0.533412018808E+00
  0.556222524548E+00  0.563789988953E+00  0.522485909973E+00  0.522702866841E+00  0.445749875990E+00  0.518409461798E+00  0.525083243954E+00
  0.503127374553E+00  0.508858208531E+00  0.472122830512E+00  0.496229364167E+00  0.494415705525E+00  0.486449115924E+00  0.489727449553E+00
  0.493325073933E+00  0.497964670326E+00  0.483734985471E+00  0.484184960292E+00  0.496327071756E+00
  0.000000000000E+00  0.000000000000E+00  0.000000000000E+00  0.000000000000E+00  0.000000000000E+00  0.000000000000E+00  0.000000000000E+00
  0.000000000000E+00  0.000000000000E+00  0.000000000000E+00  0.000000000000E+00  0.000000000000E+00  0.000000000000E+00  0.000000000000E+00
  0.000000000000E+00  0.000000000000E+00  0.000000000000E+00  0.000000000000E+00  0.000000000000E+00  0.000000000000E+00  0.000000000000E+00
  0.000000000000E+00  0.000000000000E+00  0.000000000000E+00  0.000000000000E+00  0.000000000000E+00  0.000000000000E+00  0.000000000000E+00
  0.000000000000E+00  0.000000000000E+00  0.000000000000E+00  0.000000000000E+00  0.000000000000E+00
  0.000000000000E+00  0.000000000000E+00  0.000000000000E+00 -0.225003012452E-01  0.108501329587E-01  0.000000000000E+00  0.179274472409E-01
 -0.978825370632E-01  0.370572756009E-02 -0.376720090253E-01  0.330155950851E-01  0.000000000000E+00  0.649536749083E-01 -0.414973217003E-01
  0.828324013849E-02 -0.592850064581E-02  0.480785426643E-01  0.129212426466E-01  0.456619294861E-01 -0.187878157394E-03 -0.345160150720E-03
  0.201383101844E-02  0.148485884803E-02  0.371659905107E-02  0.100525790164E-01  0.434434997067E-02  0.371830140025E-02  0.888728253438E-03
  0.485461373843E-02  0.717534030072E-03  0.210360072033E-02  0.238885599601E-02  0.449702452127E-02
  0.674356251606E+00  0.676837124810E+00  0.602833413157E+00  0.676718872231E+00  0.691760086760E+00  0.684236420504E+00  0.690337086250E+00
  0.677797496581E+00  0.695294647168E+00  0.696308024435E+00  0.703630901820E+00  0.961273920155E+00  0.719667662454E+00  0.722275589762E+00
  0.709573197972E+00  0.713536883412E+00  0.725940565670E+00  0.716708607966E+00  0.782065664474E+00  0.721741085114E+00  0.716088800935E+00
  0.716755140144E+00  0.716393114424E+00  0.737235022494E+00  0.722622261243E+00  0.719578342064E+00  0.719923919478E+00  0.722600331414E+00
  0.717624110139E+00  0.715891164940E+00  0.718234366996E+00  0.718306209728E+00  0.718029225416E+00
  0.000000000000E+00  0.000000000000E+00  0.000000000000E+00  0.446745854347E+00  0.403760671719E+00  0.000000000000E+00  0.378253861627E+00
  0.508868080891E+00  0.574635056802E+00  0.572555458340E+00  0.561392560078E+00  0.000000000000E+00  0.490997882259E+00  0.534010750416E+00
  0.556328648683E+00  0.563446178131E+00  0.522512828765E+00  0.522187642857E+00  0.441529317004E+00  0.517306788601E+00  0.524577988837E+00
  0.502893025657E+00  0.508576904570E+00  0.470213512919E+00  0.495624549587E+00  0.493941618450E+00  0.485831496841E+00  0.488875534592E+00
  0.493321867187E+00  0.497871170454E+00  0.483519592661E+00  0.484224005337E+00  0.495795841209E+00
  0.999989345567E+00  0.999989414891E+00  0.999989632591E+00  0.980661358006E+00  0.987814707962E+00  0.999989832933E+00  0.981947246323E+00
  0.984065329792E+00  0.990298787796E+00  0.990460700912E+00  0.994255087921E+00  0.999990300362E+00  0.988426948371E+00  0.100379751559E+01
  0.999840206096E+00  0.100133146751E+01  0.100836355958E+01  0.100258658990E+01  0.102990449687E+01  0.100426780606E+01  0.100192769046E+01
  0.100094825608E+01  0.100111506983E+01  0.100820002866E+01  0.100285349093E+01  0.100199788573E+01  0.100260271570E+01  0.100349154329E+01
  0.100010983929E+01  0.100037771100E+01  0.100091006343E+01  0.999863076117E+00  0.100222635938E+01
        15         9        16        16
        15        18        11        11
        22        15        21        21
        11         5         9         9
         5         7         2         2
        11         9        15        15
        16        21        15        15
        16        10        14        14
        18        17        11        11
        17        25        24        24
        22        18        15        15
        22        30        31        31
        30        21        23        23
        16        20        23        23
        22        27        26        26
        10         9         4         4
         7        11        13        13
        25        18        26        26
        11         7         5         5
         5         1         4         4
        17        19        13        13
        23        32        30        30
        23        20        29        29
         4         9         5         5
         4         8        10        10
        26        18        22        22
        26        28        25        25
        13        11        17        17
        13         6         7         7
        31        30        32        32
         2         1         5         5
         2         7         6         6
        14        10         8         8
        24        19        17        17
        24        25        28        28
         9        10        16        16
         3         4         1         1
        33        26        27        27
        12        13        19        19
        21        30        22        22
        16        14        20        20
        16        23        21        21
        22        31        27        27
        18        25        17        17
        26        33        28        28
         4         3         8         8
        23        29        32        32
        13        12         6         6
zone t="boundary 4 bc-4", solutiontime= 0.1000000E+02, strandid=1004, i=32, j=46, f=feblock
  0.125000000000E+01  0.219251206392E+01  0.103724302461E+01  0.500000000000E+01  0.250000000000E+01  0.375000000000E+01  0.404200324774E+01
  0.500000000000E+01  0.124402513262E-17  0.310152362409E+01  0.202479342020E+01  0.324151231464E+01  0.922061490191E+00  0.124402513262E-17
  0.299062775774E+01  0.394624082883E+01  0.500000000000E+01  0.409252726285E+01  0.500000000000E+01  0.429310310915E+01  0.175434191980E+01
  0.284428995242E+01  0.124402513262E-17  0.124402513262E-17  0.715990576545E+00  0.930412228790E+00  0.125000000000E+01  0.187029682677E+01
  0.500000000000E+01  0.375000000000E+01  0.250000000000E+01  0.124402513262E-17
  0.250494197117E+01  0.157686156160E+01  0.146289271009E+01  0.250494197117E+01  0.250494197117E+01  0.250494197117E+01  0.155830813274E+01
  0.125000000000E+01  0.250494197117E+01  0.177790177481E+01  0.477386199275E+00  0.742988685424E+00  0.308372018325E+00  0.125000000000E+01
 -0.487811078581E+00 -0.144524380962E+01 -0.125000000000E+01 -0.345533899378E+00  0.124402513262E-17  0.627766083140E+00 -0.739814786992E+00
 -0.158811787973E+01  0.124402513262E-17 -0.125000000000E+01 -0.600232012419E+00 -0.154800130438E+01 -0.249658903664E+01 -0.178862290564E+01
 -0.249658903664E+01 -0.249658903664E+01 -0.249658903664E+01 -0.249658903664E+01
  0.500000000000E+01  0.500000000000E+01  0.500000000000E+01  0.500000000000E+01  0.500000000000E+01  0.500000000000E+01  0.500000000000E+01
  0.500000000000E+01  0.500000000000E+01  0.500000000000E+01  0.500000000000E+01  0.500000000000E+01  0.500000000000E+01  0.500000000000E+01
  0.500000000000E+01  0.500000000000E+01  0.500000000000E+01  0.500000000000E+01  0.500000000000E+01  0.500000000000E+01  0.500000000000E+01
  0.500000000000E+01  0.500000000000E+01  0.500000000000E+01  0.500000000000E+01  0.500000000000E+01  0.500000000000E+01  0.500000000000E+01
  0.500000000000E+01  0.500000000000E+01  0.500000000000E+01  0.500000000000E+01
  0.100527703694E+01  0.100482795113E+01  0.100454341606E+01  0.100456341366E+01  0.100461385147E+01  0.100576640706E+01  0.100517424810E+01
  0.100473874277E+01  0.100300785963E+01  0.100531946773E+01  0.100476823330E+01  0.100466297734E+01  0.100354564396E+01  0.100388684883E+01
  0.100457652489E+01  0.100322850947E+01  0.100486258616E+01  0.100482360866E+01  0.100475323174E+01  0.100592542975E+01  0.100444372195E+01
  0.100393106498E+01  0.100322259600E+01  0.100343939790E+01  0.100315276830E+01  0.100408306142E+01  0.100530796134E+01  0.100424133622E+01
  0.100464400694E+01  0.100443117208E+01  0.100328172020E+01  0.100375273511E+01
  0.486449115924E+00  0.486760834445E+00  0.489197234487E+00  0.493325073933E+00  0.483734985471E+00  0.484184960292E+00  0.486434887632E+00
  0.494621319884E+00  0.496327071756E+00  0.484738255596E+00  0.486064343166E+00  0.486460686637E+00  0.493030307492E+00  0.497485592511E+00
  0.486353349842E+00  0.485267389065E+00  0.493820470180E+00  0.488479459357E+00  0.495471059874E+00  0.489168030950E+00  0.487241438721E+00
  0.486474010383E+00  0.498111377929E+00  0.496779190938E+00  0.494554823277E+00  0.491652747895E+00  0.487821398125E+00  0.487524297016E+00
  0.491941336890E+00  0.485639731554E+00  0.487563859385E+00  0.495721717224E+00
  0.000000000000E+00  0.312206114448E-03 -0.139760613484E-02  0.000000000000E+00  0.000000000000E+00  0.000000000000E+00  0.817297484814E-03
  0.116259618155E-02  0.000000000000E+00  0.694631854128E-03 -0.337578534027E-03  0.249784054885E-03 -0.198197494891E-02 -0.439437485189E-03
 -0.364560994878E-03 -0.173235599314E-03 -0.195371934514E-03 -0.680028253941E-03  0.200301447889E-03  0.176619059271E-03 -0.526831653835E-03
 -0.736872480866E-04 -0.424263490033E-03  0.823278517785E-03 -0.180339763234E-03  0.146414334727E-02  0.000000000000E+00  0.844948121716E-03
  0.000000000000E+00  0.000000000000E+00  0.000000000000E+00  0.000000000000E+00