# vtk DataFile Version 2.0
FUN3D:global_image_vtk
ASCII
DATASET UNSTRUCTURED_GRID
POINTS 213 double
   -0.5474685441687832E-02    0.5000000000000028E-30    0.2504941971167291E+01
    0.1212121212121188E-30    0.8038138598670530E-04    0.5000000000000000E-30
    0.1245419105183472E+01    0.1000000000000002E-29    0.2504941971167291E+01
    0.1212121212121188E-30    0.1039425058013133E-03    0.1000000000000000E-29
    0.2497696093128780E+01    0.5000000000000009E-30    0.2504941971167291E+01
    0.1212121212121188E-30    0.1101298164665754E-03    0.5000000000000000E-30
    0.3750590968915824E+01    0.1000000000000000E-29    0.2504941971167291E+01
    0.1212121212121188E-30    0.1356499004943612E-03    0.1000000000000000E-29
    0.5003221331742151E+01    0.4999999999999992E-30    0.2504941971167291E+01
    0.1212121212121188E-30    0.9668873038898296E-04    0.5000000000000000E-30
    0.5004676687979097E+01    0.9999999999999983E-30    0.1281291202167040E+01
    0.4999999999999847E-30    0.1638053019384356E-03    0.1000000000000000E-29
    0.5004772673778115E+01    0.4999999999999973E-30    0.2775079906482894E-01
    0.9999999999999875E-30    0.1903478008447590E-03    0.5000000000000000E-30
    0.5003581183341212E+01    0.1000000000000000E-29   -0.1225853508883529E+01
    0.4999999999999883E-30    0.1607765204486578E-03    0.1000000000000000E-29
    0.5001952533742191E+01    0.5000000000000000E-30   -0.2496589036641631E+01
    0.1212121212121196E-30    0.1082258890302557E-03    0.5000000000000000E-30
    0.3750348111606544E+01    0.1000000000000000E-29   -0.2496589036641631E+01
    0.1212121212121196E-30    0.1458753696815807E-03    0.1000000000000000E-29
    0.2498611462994928E+01    0.5000000000000009E-30   -0.2496589036641631E+01
    0.1212121212121196E-30    0.1008933264248224E-03    0.5000000000000000E-30
    0.1247175269333276E+01    0.1000000000000002E-29   -0.2496589036641631E+01
    0.1212121212121196E-30    0.1108587619169654E-03    0.1000000000000000E-29
   -0.3383959865719266E-02    0.5000000000000019E-30   -0.2496589036641631E+01
    0.1212121212121196E-30    0.8107259626494168E-04    0.5000000000000000E-30
   -0.4257768979765597E-02    0.1000000000000002E-29   -0.1225734811642590E+01
    0.4999999999999883E-30    0.3415458742295201E-04    0.1000000000000000E-29
   -0.5251592448509257E-02    0.5000000000000028E-30    0.2619486024420453E-01
    0.9999999999999875E-30    0.1038724387187884E-03    0.5000000000000000E-30
   -0.5676060312426845E-02    0.1000000000000004E-29    0.1278221569065707E+01
    0.4999999999999856E-30    0.8224601702150336E-04    0.1000000000000000E-29
    0.9003209617952581E+00    0.5000000000000028E-30    0.1608979112280158E+01
    0.9999999999999857E-30    0.8704140727672227E-04    0.5000000000000000E-30
    0.3983172210692289E+01    0.1000000000000000E-29   -0.1561211904840279E+01
    0.4999999999999883E-30    0.1757116720370600E-03    0.1000000000000000E-29
    0.4035602039224469E+01    0.5000000000000000E-30    0.1486760030415520E+01
    0.9999999999999838E-30    0.1713312862106631E-03    0.5000000000000000E-30
    0.1036613723302902E+01    0.1000000000000002E-29   -0.1455626429916848E+01
    0.4999999999999883E-30    0.1047189301532914E-03    0.1000000000000000E-29
    0.1094353480630802E+01    0.5000000000000028E-30   -0.2964622010671852E+00
    0.9999999999999838E-30    0.1260590236917269E-03    0.5000000000000000E-30
    0.7298400267480001E+00    0.1000000000000004E-29    0.6874684746719117E+00
    0.4999999999999728E-30    0.1044598640544958E-03    0.1000000000000000E-29
    0.1617018659308944E+01    0.5000000000000028E-30    0.8553208024939382E+00
    0.9999999999999710E-30    0.1529810904974394E-03    0.5000000000000000E-30
    0.2143199662875790E+01    0.1000000000000002E-29   -0.1627128509216730E+01
    0.4999999999999883E-30    0.1606170425226816E-03    0.1000000000000000E-29
    0.4088840445400889E+01    0.4999999999999992E-30   -0.4351047825936264E+00
    0.9999999999999892E-30    0.2719933294109134E-03    0.5000000000000000E-30
    0.2977916511248925E+01    0.1000000000000002E-29   -0.8334991483094488E+00
    0.4999999999999737E-30    0.2245596931861327E-03    0.1000000000000000E-29
    0.3044093241383418E+01    0.5000000000000009E-30   -0.1814361225108581E+01
    0.9999999999999892E-30    0.1617000112420497E-03    0.5000000000000000E-30
    0.3427866614805211E+01    0.1000000000000000E-29    0.3813904839972497E+00
    0.4999999999999865E-30    0.2936955483429093E-03    0.1000000000000000E-29
    0.4313225355351749E+01    0.4999999999999992E-30    0.5489133376342508E+00
    0.9999999999999710E-30    0.2313009573592373E-03    0.5000000000000000E-30
    0.1823032737597358E+01    0.1000000000000002E-29    0.1771265193544254E+01
    0.4999999999999847E-30    0.1836202887151583E-03    0.1000000000000000E-29
    0.2806311152168375E+01    0.5000000000000009E-30    0.1358629373600680E+01
    0.9999999999999838E-30    0.1943492163983818E-03    0.5000000000000000E-30
    0.1891860875936711E+01    0.1000000000000002E-29   -0.8481310365607534E+00
    0.4999999999999737E-30    0.1670645501816170E-03    0.1000000000000000E-29
    0.2268769200166909E+01    0.5000000000000028E-30    0.7723691819196567E-01
    0.9999999999999875E-30    0.2072307783085314E-03    0.5000000000000000E-30
    0.5000000000000000E+01   -0.2781985999303977E-46    0.2504941971167291E+01
    0.1212121212121188E-30    0.1250000000000000E+01   -0.2781985999303977E-46
    0.5000000000000000E+01   -0.2781985999303977E-46    0.2504941971167291E+01
    0.1212121212121188E-30    0.2500000000000000E+01   -0.2781985999303977E-46
    0.5000000000000000E+01   -0.2781985999303977E-46    0.2504941971167291E+01
    0.1212121212121188E-30    0.3750000000000000E+01   -0.2781985999303977E-46
    0.5000000000000000E+01   -0.2781985999303977E-46    0.2504941971167291E+01
    0.1212121212121188E-30    0.5000000000000000E+01   -0.2781985999303977E-46
    0.3750000000000000E+01   -0.2781985999303977E-46    0.2504941971167291E+01
    0.1212121212121188E-30    0.5000000000000000E+01   -0.2781985999303977E-46
    0.2500000000000000E+01   -0.2781985999303977E-46    0.2504941971167291E+01
    0.1212121212121188E-30    0.5000000000000000E+01   -0.2781985999303977E-46
    0.1250000000000000E+01   -0.2781985999303977E-46    0.2504941971167291E+01
    0.1212121212121188E-30    0.5000000000000000E+01   -0.2781985999303977E-46
   -0.1202972628407695E-18   -0.2781985999303977E-46    0.2504941971167291E+01
    0.1212121212121188E-30    0.5000000000000000E+01   -0.2781985999303977E-46
   -0.1202972628407695E-18   -0.2781985999303977E-46    0.2504941971167291E+01
    0.1212121212121188E-30    0.3750000000000000E+01   -0.2781985999303977E-46
   -0.1202972628407695E-18   -0.2781985999303977E-46    0.2504941971167291E+01
    0.1212121212121188E-30    0.2500000000000000E+01   -0.2781985999303977E-46
   -0.1202972628407695E-18   -0.2781985999303977E-46    0.2504941971167291E+01
    0.1212121212121188E-30    0.1250000000000000E+01   -0.2781985999303977E-46
    0.9588956434871094E+00    0.4088323204878433E-30    0.2504941971167291E+01
    0.1212121212121188E-30    0.9696525519543873E+00    0.8253355966551349E-30
    0.3981953078951401E+01    0.7369699780782234E-31    0.2504941971167291E+01
    0.1212121212121188E-30    0.4070563854751271E+01    0.1516277355826345E-30
    0.4036122187252336E+01    0.5331184872986621E-30    0.2504941971167291E+01
    0.1212121212121188E-30    0.1017567520094671E+01    0.8139234257757766E-30
    0.9637572773153887E+00   -0.9331067766471601E-32    0.2504941971167291E+01
    0.1212121212121188E-30    0.3973598203142229E+01    0.1306014370157800E-30
    0.1546540136992396E+01    0.8002905657908016E-31    0.2504941971167291E+01
    0.1212121212121188E-30    0.2931570169315600E+01    0.3996885550959065E-30
    0.6973799521244312E+00    0.3481309068259479E-32    0.2504941971167291E+01
    0.1212121212121188E-30    0.3070319952453756E+01    0.2100037182686089E-30
    0.8903742148356886E+00    0.7712488796323735E-31    0.2504941971167291E+01
    0.1212121212121188E-30    0.2056562238187738E+01    0.4294668085391834E-30
    0.2183041995146012E+01    0.3782461580959631E-31    0.2504941971167291E+01
    0.1212121212121188E-30    0.3960694449828019E+01    0.2259705361710329E-30
    0.3855844872709870E+01    0.1784932175605004E-30    0.2504941971167291E+01
    0.1212121212121188E-30    0.2933250588118631E+01    0.3558534735532246E-30
    0.3152611367438028E+01    0.1115283363381622E-30    0.2504941971167291E+01
    0.1212121212121188E-30    0.3637668388416195E+01    0.2959845527149771E-30
    0.3103307385241869E+01    0.5185271477230500E-31    0.2504941971167291E+01
    0.1212121212121188E-30    0.4332607813099731E+01    0.1521436499775007E-30
    0.3266711045517939E+01    0.3601961362735664E-30    0.2504941971167291E+01
    0.1212121212121188E-30    0.1889656617463738E+01    0.6353768785670781E-30
    0.4232537554484796E+01    0.2580489315427285E-30    0.2504941971167291E+01
    0.1212121212121188E-30    0.1918626969802351E+01    0.4090791405806647E-30
    0.1905522374036519E+01    0.6572817491137211E-30    0.2504941971167291E+01
    0.1212121212121188E-30    0.7226290832134608E+00    0.8977306600899812E-30
    0.2879767723645805E+01    0.6107141644544749E-30    0.2504941971167291E+01
    0.1212121212121188E-30    0.9080945892181980E+00    0.8180347387425711E-30
    0.2012711365064515E+01    0.3615868018459119E-30    0.2504941971167291E+01
    0.1212121212121188E-30    0.1767082390977754E+01    0.7060364642883589E-30
    0.2669681472994637E+01    0.1849800474540841E-30    0.2504941971167291E+01
    0.1212121212121188E-30    0.2853394335010791E+01    0.4820509466865480E-30
    0.5000000000000000E+01   -0.2781985999303977E-46    0.1250000000000000E+01
   -0.2781985999303977E-46    0.5000000000000000E+01   -0.2781985999303977E-46
    0.5000000000000000E+01   -0.2781985999303977E-46   -0.1202972628407695E-18
[...]
POINT_DATA 213
SCALARS rho double 1
LOOKUP_TABLE default
   0.1346108320167898E+01
  -0.1177608621824256E-30
   0.9572039973094452E+00
   0.2108878643685164E-31
   0.9461172119696928E+00
  -0.8777074120868963E-31
   0.9421724501874282E+00
   0.2463023265013873E-31
   0.8436077158704129E+00
  -0.1732614812826881E-31
   0.7742023744126100E+00
   0.2325429791691108E-30
   0.7627583490011850E+00
   0.8548768355906727E-31
   0.7661561848330301E+00
   0.3222209464641256E-31
   0.8310489524670818E+00
  -0.1016795644480109E-30
   0.9353548289640250E+00
   0.3068730176349071E-31
   0.9343897262830549E+00
  -0.7551865239427580E-31
   0.9616167903163400E+00
  -0.8801487253775444E-32
   0.1448475456254539E+01
  -0.2080910274271419E-30
   0.1495420690351037E+01
  -0.7365292938732885E-30
   0.1646729693139219E+01
  -0.3640615964793223E-30
   0.1426611750969790E+01
  -0.5489175865650220E-30
   0.1009807292661796E+01
  -0.4443514177195106E-31
   0.9511451590904794E+00
  -0.2350095335993016E-31
   0.9438202964724801E+00
   0.1502184603534571E-31
   0.9574649713964890E+00
  -0.1788237357564908E-31
   0.9414971295985785E+00
   0.1314202091234691E-31
   0.1037119049399086E+01
  -0.2075618048752644E-30
   0.9258166070924398E+00
  -0.3401748673244122E-31
   0.9322402483846394E+00
  -0.7674205355086131E-31
   0.9538058234927146E+00
  -0.3489745875520988E-31
   0.9520452769401186E+00
  -0.4171331505806134E-31
   0.9351035444159301E+00
  -0.1567346844341300E-31
   0.9565496524680621E+00
  -0.2962287607198643E-31
   0.9378638715799699E+00
  -0.1486897535016201E-32
   0.9303460493399831E+00
  -0.2936543686109861E-31
   0.9446467735905587E+00
   0.1257888960590939E-31
   0.8862352671821336E+00
   0.5292305159462626E-31
   0.9424046381945320E+00
   0.1081191318059446E-30
   0.9637016109494778E+00
  -0.3482088905278305E-31
   0.1008356249677489E+01
  -0.1320000901235193E-32
   0.1006712424137232E+01
   0.1297208264020623E-32
   0.1001958982012130E+01
  -0.1468351099550347E-32
   0.1003217525722925E+01
  -0.4892348289643624E-32
   0.1004120093480434E+01
  -0.6469081626246738E-32
   0.1005208056863431E+01
  -0.5564347971994142E-32
   0.1004249960665769E+01
  -0.1802648720862186E-32
   0.1008268326722962E+01
  -0.4612015737769256E-32
   0.1023869440256750E+01
   0.4401853840051131E-33
   0.1063755458020882E+01
   0.3369758082914374E-32
   0.1019394091235524E+01
   0.2549122376590390E-32
   0.1001777929294293E+01
  -0.2389985353171237E-32
   0.9645777253166236E+00
  -0.5007937206025576E-31
   0.1005263326362703E+01
  -0.4528962913580184E-32
   0.1000745733658710E+01
  -0.6736522434046997E-33
   0.1008696547411540E+01
  -0.3737945859053594E-32
   0.1008037947572955E+01
   0.1511605677316696E-32
   0.1002353858968824E+01
  -0.4724724295950783E-32
   0.9980195431279841E+00
  -0.2360513955243189E-32
   0.1000592768716348E+01
  -0.3289460652525957E-32
   0.1001620629452737E+01
  -0.4554808420597750E-32
   0.9828039142718600E+00
  -0.1135551991102575E-31
   0.9843900156190939E+00
  -0.8360116095928489E-32
   0.9834135981541645E+00
  -0.4733365780248234E-31
   0.9790328028365329E+00
  -0.3586522656629873E-31
   0.9904757267262009E+00
  -0.1230848667136673E-31
   0.9935193435343440E+00
  -0.2614882031070978E-32
   0.1002008912238691E+01
  -0.1286674874676802E-32
   0.1002132235379219E+01
  -0.1236205093253395E-32
   0.1002273052886114E+01
  -0.7098828832085411E-33
   0.1001793570124425E+01
  -0.5490202683579682E-33
   0.1009816138571117E+01
   0.1297975159630757E-32
   0.1006507935791160E+01
  -0.3875843826883755E-32
   0.9561125821117887E+00
  -0.3365995626870574E-31
   0.9252808070453854E+00
  -0.3956073046051293E-31
   0.1007053999839109E+01
   0.7701320002209768E-33
   0.1004491022155284E+01
   0.8702408136402909E-34
   0.9145128424175902E+00
  -0.4174583435199453E-31
   0.9091570519054312E+00
  -0.2042565091118333E-31
   0.8752462909366976E+00
  -0.1988110735740273E-31
   0.9767979350180428E+00
  -0.1298066760540173E-31
   0.1000541344078929E+01
  -0.2765259358479794E-32
   0.1005826589903031E+01
   0.3752617944415735E-33
   0.1012896691614106E+01
   0.1001373187017510E-32
   0.1011680282822719E+01
   0.7244249354528819E-33
   0.1010415992116640E+01
   0.1111714423594377E-33
   0.1005456652289991E+01
   0.3298655888628788E-33
   0.9909167428715454E+00
  -0.7162131942664821E-32
   0.1005149588901636E+01
  -0.1645787458795544E-32
   0.9860895030532396E+00
  -0.2084120471745203E-32
   0.1005593190647500E+01
  -0.1807801465126467E-32
   0.1004239921837982E+01
  -0.2052483218025345E-32
   0.1002885973954451E+01
  -0.1680754649266319E-32
   0.1003350064369454E+01
  -0.1850801242970973E-32
   0.1003997951092049E+01
  -0.2025754592063432E-32
   0.1005115340226543E+01
  -0.5167161162183556E-32
   0.1003223209404156E+01
  -0.5847584293568625E-32
   0.1002669081838942E+01
  -0.4083066067034910E-32
   0.1002589492149792E+01
  -0.4180309337766792E-32
   0.1004069042629846E+01
  -0.3733362078103949E-32
   0.1004304980670930E+01
  -0.4571156690817544E-32
   0.1001643112075913E+01
  -0.3316376636574459E-32
   0.1002279097566342E+01
  -0.3841140569957386E-32
   0.1002546734424798E+01
  -0.3710938554988012E-32
   0.1003471964555218E+01
  -0.5345305827281532E-32
   0.1003380221926448E+01
  -0.5306806267473497E-32
   0.1003233133667537E+01
  -0.2892350287501214E-32
   0.1004429881514450E+01
  -0.5442530261146665E-32
   0.1004324031027685E+01
  -0.5630305630330538E-32
   0.1003653010111770E+01
  -0.3701240299759000E-32
   0.1003718571214461E+01
  -0.5517772291685394E-32
   0.1004319222643233E+01
  -0.5867559194780252E-32
   0.1004462555719450E+01
  -0.6191620985697520E-32
   0.1003629392094521E+01
  -0.5732685386006319E-32
   0.1064485266726437E+01
  -0.6168855805645716E-32
   0.1028442058317482E+01
   0.2142413094574848E-32
   0.1009605872021476E+01
  -0.3222361464657675E-32
   0.1006626986932936E+01
  -0.3720412910913064E-32
   0.1163967541391750E+01
  -0.4691746174253488E-31
   0.1086026682976211E+01
  -0.2900674776335779E-32
   0.1007907084355653E+01
  -0.3542389489483198E-32
   0.1007251826314576E+01
  -0.3822270704891686E-32
   0.1006796457746205E+01
  -0.3647468607392918E-32
   0.1013053881983278E+01
  -0.2669872467598000E-32
   0.1019340786766024E+01
   0.3038566087017423E-32
   0.1235123172576096E+01
  -0.1137411613895349E-30
   0.1032535565609108E+01
   0.5374172626391436E-32
   0.1046565476692951E+01
   0.8897391816431745E-32
   0.1201701824251177E+01
  -0.2041245840696983E-31
   0.1014672135883825E+01
  -0.2586186649327128E-32
   0.1032297495245327E+01
   0.4148560082456822E-32
   0.1028222179976426E+01
   0.3282095524960699E-32
   0.1014640516869350E+01
  -0.1077338994437332E-32
   0.1028986924560260E+01
  -0.6003295720877222E-33
   0.1002003699850009E+01
  -0.2310357477363912E-32
   0.9608148122723456E+00
  -0.4501977890180334E-31
   0.1006858067294186E+01
  -0.3902794682253831E-32
   0.1001324898307711E+01
  -0.6150434424353398E-32
   0.1010798256140525E+01
  -0.1808625706900093E-32
   0.1012231334777386E+01
  -0.4506411647147443E-32
   0.1000939562410006E+01
  -0.4606057223196152E-32
   0.9979357756476646E+00
  -0.4919461139913897E-32
   0.9980690323565885E+00
  -0.4007903304429095E-32
   0.1001192025562232E+01
  -0.4325750017255589E-32
   0.9842100836156531E+00
  -0.2063382719046895E-31
   0.9815228484366639E+00
  -0.1482313907877393E-31
   0.9648740579624089E+00
  -0.4544623457896266E-31
   0.9680944460203100E+00
  -0.4916615013795213E-31
   0.9914084283840549E+00
  -0.1964540681357826E-31
   0.9910913103057215E+00
  -0.6075824988076505E-32
   0.9925587098473793E+00
  -0.5687663558170792E-32
   0.1001727546490066E+01
  -0.3481256942394327E-32
   0.9993245705266388E+00
  -0.3737705135057488E-32
   0.9941434355992712E+00
  -0.5613594510690402E-32
   0.1006982471290385E+01
   0.4508406203857180E-33
   0.1022613018336143E+01
   0.5287046693068740E-32
   0.1001120641724434E+01
  -0.2122938909322004E-31
   0.1008783932502272E+01
  -0.3685038932970348E-32
   0.1004774771314954E+01
  -0.4072015198630884E-32
   0.1009030408604205E+01
  -0.2869723765123197E-32
   0.9967211495583151E+00
  -0.5974069270205368E-32
   0.1005570717382603E+01
  -0.2353967639824407E-32
   0.1003324755234682E+01
  -0.5026516177372256E-32
   0.9949845969105894E+00
  -0.3836783877740106E-32
   0.9833501751225424E+00
  -0.8756240637946040E-32
   0.9944494766461991E+00
  -0.5033868626411125E-32
   0.9973474157940340E+00
  -0.3733685396167671E-32
   0.9932503688863245E+00
  -0.5536527616726233E-32
   0.1001311872769494E+01
  -0.4117447978049296E-32
   0.1003000703052305E+01
  -0.4469711131921456E-32
   0.1002188282134405E+01
  -0.4060264678395760E-32
   0.9947120030518170E+00
  -0.3102674260167392E-32
   0.9937832135752031E+00
  -0.3583534144732023E-32
   0.1004861703248896E+01
  -0.4838263051625640E-32
   0.1020101279736925E+01
  -0.6998533668777988E-32
   0.1005337229766711E+01
  -0.1030186290109677E-31
   0.9817045981485049E+00
  -0.1686941617517970E-31
   0.1004974590959147E+01
  -0.4655001746489969E-32
   0.1012374656945013E+01
  -0.2246152153660211E-32
   0.9873720375363515E+00
  -0.2688576296258293E-31
   0.9551284414845218E+00
  -0.1184392238876428E-32
   0.9865253731881816E+00
  -0.1926653995986643E-31
   0.9865916540397133E+00
  -0.1248921655318425E-31
   0.9920067108265755E+00
  -0.4788184664247648E-31
   0.9934435637975801E+00
  -0.2361983145260023E-31
   0.9960682558600055E+00
  -0.5866035241087709E-31
   0.1037400104266039E+01
  -0.1613048435078176E-31
   0.1033161099919513E+01
  -0.7995213962174410E-32
   0.1001442972882464E+01
  -0.2749563699085395E-32
   0.1001928633369142E+01
  -0.4777678934679156E-32
   0.9912313031440781E+00
  -0.3043374788438243E-32
   0.9911145242856966E+00
  -0.8045884038088415E-32
   0.9649433950401153E+00
  -0.1821596646029636E-31
   0.9933790176154742E+00
  -0.4469785895223020E-32
   0.1006090799945831E+01
  -0.4566678989468116E-33
   0.1001963028312688E+01
  -0.1176986221991581E-32
   0.9908628913628907E+00
  -0.6794494830509514E-32
   0.9742169802808656E+00
  -0.1689449374000588E-31
   0.9420656282144669E+00
  -0.3347032619318385E-31
   0.9821543891858826E+00
  -0.2440250401702287E-31
   0.9794783253608215E+00
  -0.1144628051533625E-31
   0.9704368629484545E+00
  -0.1548708202121106E-31
   0.9720887184372694E+00
  -0.3528331729532702E-31
   0.9557898501917873E+00
  -0.1215024333070211E-31
   0.9498086807512850E+00
  -0.3122560602363581E-31
   0.9529904695014861E+00
  -0.4051517359255885E-31
   0.1002635784817127E+01
  -0.3554111202153575E-32
   0.1002475619223325E+01
  -0.4746821619255948E-32
   0.1000513072521503E+01
  -0.3039990118461077E-32
   0.1001674844585186E+01
  -0.1517783845440817E-32
   0.9610035087888529E+00
  -0.3574711089630316E-31
   0.9492443442993532E+00
  -0.6631869182964835E-31
   0.9586633014642630E+00
  -0.3154431824167725E-31
   0.1001121359784688E+01
  -0.4384654539486629E-32
   0.1000501191729211E+01
  -0.3466159322494458E-32
   0.1001159789938447E+01
  -0.2027800149302241E-32
   0.9807420375951897E+00
  -0.1683752385878667E-31
   0.9805568696696371E+00
  -0.2124755720892422E-31
   0.9629217691717569E+00
  -0.2912352799393736E-31
SCALARS u double 1
LOOKUP_TABLE default
   0.0000000000000000E+00
   0.0000000000000000E+00
   0.0000000000000000E+00
   0.0000000000000000E+00
   0.0000000000000000E+00
   0.0000000000000000E+00
   0.0000000000000000E+00
   0.0000000000000000E+00
   0.0000000000000000E+00
   0.0000000000000000E+00
   0.0000000000000000E+00
   0.0000000000000000E+00
   0.0000000000000000E+00
   0.0000000000000000E+00
   0.0000000000000000E+00
   0.0000000000000000E+00
   0.0000000000000000E+00
   0.0000000000000000E+00
   0.0000000000000000E+00
   0.0000000000000000E+00
   0.0000000000000000E+00
   0.0000000000000000E+00
   0.0000000000000000E+00
   0.0000000000000000E+00
   0.0000000000000000E+00
   0.0000000000000000E+00
   0.0000000000000000E+00
   0.0000000000000000E+00
   0.0000000000000000E+00
   0.0000000000000000E+00
   0.0000000000000000E+00
   0.0000000000000000E+00
   0.0000000000000000E+00
   0.0000000000000000E+00
   0.0000000000000000E+00
   0.0000000000000000E+00
   0.0000000000000000E+00
   0.0000000000000000E+00
   0.0000000000000000E+00
   0.0000000000000000E+00
   0.0000000000000000E+00
   0.0000000000000000E+00
   0.0000000000000000E+00
   0.0000000000000000E+00
   0.0000000000000000E+00
   0.0000000000000000E+00
   0.0000000000000000E+00
   0.0000000000000000E+00
   0.0000000000000000E+00
   0.0000000000000000E+00
   0.0000000000000000E+00
   0.0000000000000000E+00
   0.0000000000000000E+00
   0.0000000000000000E+00
   0.0000000000000000E+00
   0.0000000000000000E+00
   0.0000000000000000E+00
   0.0000000000000000E+00
   0.0000000000000000E+00
   0.0000000000000000E+00
   0.0000000000000000E+00
   0.0000000000000000E+00
   0.0000000000000000E+00
   0.0000000000000000E+00
   0.0000000000000000E+00
   0.0000000000000000E+00
   0.4945970943801413E+00
  -0.2504730116714066E-31
   0.5336248262667718E+00
  -0.9236929373930257E-32
   0.5182739845572010E+00
  -0.3131331992610736E-32
   0.4930715549194780E+00
  -0.7215098416328657E-34
   0.4847756851511926E+00
   0.8343680464322005E-32
   0.4868133108895589E+00
   0.1285652769951037E-31
   0.4891430814733279E+00
   0.1140467295703016E-31
   0.4958008889625048E+00
   0.1942107960730281E-32
   0.4899007511857167E+00
   0.6904855963946158E-32
   0.4718072591594561E+00
   0.2270706188919528E-33
   0.4448872865967207E+00
  -0.4956125247837887E-32
   0.4844369942388151E+00
   0.5356574142827505E-31
   0.5097702778312662E+00
  -0.6428843254244268E-33
   0.4401858945453689E+00
   0.9160611078553848E-31
   0.4949587064001673E+00
   0.5818842785693891E-32
   0.5223003646307559E+00
  -0.5215074730314152E-32
   0.4962747092000775E+00
   0.2729520953454185E-32
   0.5223832249428209E+00
  -0.1083584025580116E-31
   0.5038168061371718E+00
   0.3053108036680476E-32
   0.5644336839387315E+00
  -0.3176272180136263E-32
   0.5245894422348900E+00
  -0.3418077776983445E-32
   0.4990984764639068E+00
   0.3634035142452581E-32
   0.5729201629562279E+00
   0.1632416732314321E-31
   0.5693592577927715E+00
  -0.6386480269200160E-33
   0.3752192321186031E+00
   0.9373929101456640E-31
   0.4003638775118039E+00
   0.6331473280212789E-31
   0.5599390064626524E+00
   0.3108853293630557E-31
   0.5562259073180136E+00
  -0.1472838016565229E-32
   0.4942642597643800E+00
  -0.1223248282222340E-32
   0.4948653067201875E+00
  -0.2349301672368083E-32
   0.4925619353614323E+00
  -0.3794233006010511E-32
   0.4913967895878956E+00
  -0.2316355331888835E-32
   0.5162597247596877E+00
  -0.6607784351416223E-33
   0.5363670832292798E+00
   0.5455242334192570E-32
   0.4951373823571552E+00
  -0.4948451727374777E-32
   0.4520512203358737E+00
  -0.3405725474267206E-31
   0.5129007552298275E+00
  -0.1329554098513144E-32
   0.5117698824407768E+00
  -0.2586965395480073E-32
   0.4786317209340033E+00
  -0.1180514683007224E-31
   0.4931122034969784E+00
  -0.3456651465366930E-31
   0.4600270530145721E+00
  -0.7818850119888946E-31
   0.5242595878702845E+00
  -0.2536001766970612E-31
   0.5299947220552609E+00
  -0.3418907041018388E-32
   0.5129700180641762E+00
  -0.4540254666207264E-32
   0.5328928611761573E+00
   0.1345096485726524E-32
   0.5309782815728789E+00
   0.3326729247866710E-32
   0.5309767086464251E+00
  -0.2767129778412219E-32
   0.5063650835808670E+00
  -0.4150561302726114E-32
   0.5279536270617929E+00
  -0.1519674139981931E-31
   0.5409238903569352E+00
  -0.4821841096418692E-32
   0.5363718942740995E+00
  -0.1521197210347601E-31
   0.5374201365934723E+00
  -0.6352568020777400E-32
   0.4965358991775232E+00
   0.7786546257043968E-33
   0.4975364817175644E+00
   0.6560403109343695E-33
   0.4963815155968563E+00
   0.2131805925597170E-32
   0.4955155038501173E+00
   0.1995638900978499E-32
   0.4904172264191327E+00
   0.9747484726073254E-32
   0.4902500134997367E+00
   0.1083618697357521E-31
   0.4861611283407276E+00
   0.5923935651243358E-32
   0.4854070770114680E+00
   0.5624147107909840E-32
   0.4931956049598265E+00
   0.7482011779981886E-32
   0.4910329866279547E+00
   0.9829351321969795E-32
   0.4831677829909502E+00
   0.2548198010322874E-32
   0.4872470363389796E+00
   0.3596705190038798E-32
   0.4880026863918933E+00
   0.3472411072725598E-32
   0.4872313813682464E+00
   0.8902239741174158E-32
   0.4882163816632715E+00
   0.1067918894668346E-31
   0.4952576920249298E+00
   0.6042511527893426E-32
   0.4900721256704262E+00
   0.1213843183599428E-31
   0.4903599127454172E+00
   0.1135209426590431E-31
   0.4944353202011129E+00
   0.8087292752534268E-32
   0.4868193028726676E+00
   0.1037896852644945E-31
   0.4892735993549199E+00
   0.1174715722078805E-31
   0.4881468319132427E+00
   0.1259405606703301E-31
   0.4878253078298554E+00
   0.1050150767813531E-31
   0.4449106540174381E+00
  -0.4106887140711715E-32
   0.4700132923013414E+00
  -0.1581927614719980E-32
   0.4891774943368629E+00
   0.3421840335011594E-32
   0.4885974526172061E+00
   0.8942175959183049E-32
   0.4510294802571621E+00
   0.3546077360673691E-31
   0.4681803380556632E+00
  -0.1277137715806239E-31
   0.4876666821293678E+00
   0.5616060440600706E-32
   0.4868262709211562E+00
   0.8284805459062296E-32
   0.4909268288250419E+00
   0.6382870017379614E-32
   0.4793945579278419E+00
   0.6164670096927405E-32
   0.4657906898367209E+00
  -0.3733589180290071E-32
   0.3794391092398530E+00
   0.3591392482394823E-31
   0.4903637296542833E+00
  -0.4087920174147684E-31
   0.4487969202906176E+00
  -0.1380702003921420E-31
   0.4432386735220743E+00
   0.1236227730982285E-31
   0.4845716428784698E+00
   0.3620934257347929E-32
   0.4621867876929746E+00
  -0.6554416919931175E-32
   0.4663606739607279E+00
  -0.3098491666746154E-31
   0.4747787103262650E+00
   0.2523058715793838E-32
   0.4893811131323153E+00
   0.5096341039470486E-31
   0.5085639920201890E+00
  -0.3641452440196362E-33
   0.4305372666671673E+00
   0.4073426588435473E-31
   0.4927298078314821E+00
   0.4985657941342286E-32
   0.5320327376382583E+00
  -0.5116877466151666E-32
   0.4913855500320975E+00
   0.9643808166155606E-33
   0.5209473665725755E+00
  -0.2235603223611176E-32
   0.5061309529371385E+00
   0.1672282328917582E-32
   0.5690650942098489E+00
   0.1122593795029232E-31
   0.5274990885227846E+00
   0.4057922748196215E-33
   0.5015024563240301E+00
   0.3365397255240269E-32
   0.5821782450323789E+00
   0.3581011653430274E-31
   0.5691769089349853E+00
   0.1983282491579246E-31
   0.3403300391504774E+00
   0.1004088588475191E-30
   0.3786151416945668E+00
  -0.1186135703434443E-31
   0.5753346502931336E+00
   0.5551210202999702E-31
   0.5668543339591872E+00
   0.9988043306452044E-32
   0.5703059583694103E+00
  -0.4924326559933767E-32
   0.5291879221137393E+00
  -0.8599461406593630E-32
   0.5449837225314614E+00
  -0.1358205331276378E-31
   0.5719102663632758E+00
   0.7506908856925235E-32
   0.5385667418722423E+00
  -0.2199664178528031E-31
   0.5475905550885972E+00
   0.2252599252038832E-31
   0.5821515965098090E+00
   0.3436934715643960E-31
   0.4925318981257806E+00
  -0.6088749744920049E-32
   0.5041571024784184E+00
   0.1075823953883091E-32
   0.4961293285026027E+00
  -0.2294799303697468E-32
   0.5562736278615138E+00
   0.4200901495472346E-32
   0.4757836991094688E+00
  -0.3959296395218690E-31
   0.4950183348056080E+00
   0.6361714929394776E-32
   0.5496188015148937E+00
  -0.7029300323416482E-32
   0.5889517129757026E+00
   0.2028619395180174E-31
   0.5839552657566272E+00
   0.1370400540813258E-32
   0.5468175472975773E+00
  -0.4319144472505966E-32
   0.5803880210325029E+00
   0.9789632714414737E-33
   0.5106065604209349E+00
  -0.1881591587473543E-32
   0.5029552564285683E+00
   0.7251869249496036E-33
   0.5033113147231613E+00
   0.1001962914738595E-32
   0.5676221962683293E+00
   0.1967045734193185E-32
   0.5564619487949176E+00
  -0.1970150232718215E-32
   0.4947144935171682E+00
   0.2845394888376135E-32
   0.5506785395145134E+00
  -0.1676778280091989E-31
   0.5513581030668716E+00