TITLE="fun3d_case_title"
VARIABLES="Iteration" "R_1" "R_2" "R_3" "R_4" "R_5" "C_L" "C_D" "C_M_x" "C_M_y" "C_M_z" "Wall Time" "C_x" "C_y" "C_z" "C_Lp" "C_Dp" "C_Lv" "C_Dv" "C_M_xp" "C_M_yp" "C_M_zp" "C_M_xv" "C_M_yv" "C_M_zv" "C_xp" "C_yp" "C_zp" "C_xv" "C_yv" "C_zv"
ZONE  I=100 F=POINT
1  0.3909342814E-04  0.1954671407E-04  0.1572208282E-17  0.1103959724E-17  0.1026202489E-03 -0.9903812855E-03  0.1541794171E+00 -0.8803052303E+00  0.8013475391E-01  0.4401309724E+01  0.1124350000E+02  0.1541794171E+00  0.1762278796E+01 -0.9903812855E-03 -0.9903812855E-03  0.1541794171E+00  0.0000000000E+00  0.0000000000E+00 -0.8803052303E+00  0.8013475391E-01  0.4401309724E+01  0.0000000000E+00  0.0000000000E+00  0.0000000000E+00  0.1541794171E+00  0.1762278796E+01 -0.9903812855E-03  0.0000000000E+00  0.0000000000E+00  0.0000000000E+00
2  0.1140784030E-04  0.4512451812E-05  0.1647231922E-04  0.7741319364E-06  0.2943831696E-04 -0.6090366894E-03  0.1373533177E+00 -0.7836671397E+00  0.7288127420E-01  0.3908454236E+01  0.1848190000E+02  0.1373533177E+00  0.1569955606E+01 -0.6090366894E-03 -0.6090366894E-03  0.1373533177E+00  0.0000000000E+00  0.0000000000E+00 -0.7836671397E+00  0.7288127420E-01  0.3908454236E+01  0.0000000000E+00  0.0000000000E+00  0.0000000000E+00  0.1373533177E+00  0.1569955606E+01 -0.6090366894E-03  0.0000000000E+00  0.0000000000E+00  0.0000000000E+00
3  0.7712648935E-05  0.6157822438E-05  0.1010836830E-04  0.8364291854E-06  0.1962860627E-04  0.9825963119E-03  0.9165691836E-01 -0.5233033913E+00  0.4269872456E-01  0.2519636099E+01  0.2571750000E+02  0.9165691836E-01  0.1047643374E+01  0.9825963119E-03  0.9825963119E-03  0.9165691836E-01  0.0000000000E+00  0.0000000000E+00 -0.5233033913E+00  0.4269872456E-01  0.2519636099E+01  0.0000000000E+00  0.0000000000E+00  0.0000000000E+00  0.9165691836E-01  0.1047643374E+01  0.9825963119E-03  0.0000000000E+00  0.0000000000E+00  0.0000000000E+00
4  0.3973256662E-05  0.5684921999E-05  0.3692317964E-05  0.5882688184E-06  0.1106224234E-04  0.1216935330E-02  0.7731313739E-01 -0.4421324462E+00  0.3500779901E-01  0.2035592334E+01  0.3295340000E+02  0.7731313739E-01  0.8836932060E+00  0.1216935330E-02  0.1216935330E-02  0.7731313739E-01  0.0000000000E+00  0.0000000000E+00 -0.4421324462E+00  0.3500779901E-01  0.2035592334E+01  0.0000000000E+00  0.0000000000E+00  0.0000000000E+00  0.7731313739E-01  0.8836932060E+00  0.1216935330E-02  0.0000000000E+00  0.0000000000E+00  0.0000000000E+00
5  0.3609743060E-05  0.4444485138E-05  0.3570392824E-05  0.4982003669E-06  0.1028993388E-04  0.9401770041E-03  0.6624061935E-01 -0.3789102084E+00  0.3017670155E-01  0.1662147235E+01  0.3805830000E+02  0.6624061935E-01  0.7571337431E+00  0.9401770041E-03  0.9401770041E-03  0.6624061935E-01  0.0000000000E+00  0.0000000000E+00 -0.3789102084E+00  0.3017670155E-01  0.1662147235E+01  0.0000000000E+00  0.0000000000E+00  0.0000000000E+00  0.6624061935E-01  0.7571337431E+00  0.9401770041E-03  0.0000000000E+00  0.0000000000E+00  0.0000000000E+00
6  0.2272719958E-05  0.3033482740E-05  0.3079301258E-05  0.3502896777E-06  0.6469724199E-05  0.4785194413E-03  0.6233183126E-01 -0.3560290581E+00  0.2958668219E-01  0.1527658097E+01  0.4529450000E+02  0.6233183126E-01  0.7124560900E+00  0.4785194413E-03  0.4785194413E-03  0.6233183126E-01  0.0000000000E+00  0.0000000000E+00 -0.3560290581E+00  0.2958668219E-01  0.1527658097E+01  0.0000000000E+00  0.0000000000E+00  0.0000000000E+00  0.6233183126E-01  0.7124560900E+00  0.4785194413E-03  0.0000000000E+00  0.0000000000E+00  0.0000000000E+00
7  0.1620608626E-05  0.1899118580E-05  0.1971059047E-05  0.3022584738E-06  0.4492149183E-05 -0.2564760267E-04  0.6289080007E-01 -0.3586067792E+00  0.3139709468E-01  0.1563292677E+01  0.5040010000E+02  0.6289080007E-01  0.7188451332E+00 -0.2564760267E-04 -0.2564760267E-04  0.6289080007E-01  0.0000000000E+00  0.0000000000E+00 -0.3586067792E+00  0.3139709468E-01  0.1563292677E+01  0.0000000000E+00  0.0000000000E+00  0.0000000000E+00  0.6289080007E-01  0.7188451332E+00 -0.2564760267E-04  0.0000000000E+00  0.0000000000E+00  0.0000000000E+00
8  0.1165598230E-05  0.1396402173E-05  0.1658810699E-05  0.2600203748E-06  0.3099421720E-05 -0.1885867039E-03  0.6569157637E-01 -0.3744953325E+00  0.3333959333E-01  0.1677865115E+01  0.5763690000E+02  0.6569157637E-01  0.7508581536E+00 -0.1885867039E-03 -0.1885867039E-03  0.6569157637E-01  0.0000000000E+00  0.0000000000E+00 -0.3744953325E+00  0.3333959333E-01  0.1677865115E+01  0.0000000000E+00  0.0000000000E+00  0.0000000000E+00  0.6569157637E-01  0.7508581536E+00 -0.1885867039E-03  0.0000000000E+00  0.0000000000E+00  0.0000000000E+00
9  0.9298692738E-06  0.1272496112E-05  0.1492934716E-05  0.2160049061E-06  0.2441784098E-05 -0.7913533322E-04  0.6809695132E-01 -0.3885222145E+00  0.3419090585E-01  0.1751244687E+01  0.6274230000E+02  0.6809695132E-01  0.7783517157E+00 -0.7913533322E-04 -0.7913533322E-04  0.6809695132E-01  0.0000000000E+00  0.0000000000E+00 -0.3885222145E+00  0.3419090585E-01  0.1751244687E+01  0.0000000000E+00  0.0000000000E+00  0.0000000000E+00  0.6809695132E-01  0.7783517157E+00 -0.7913533322E-04  0.0000000000E+00  0.0000000000E+00  0.0000000000E+00
10  0.8804327884E-06  0.1061161005E-05  0.1052017744E-05  0.1894100537E-06  0.2355717764E-05  0.4721195919E-04  0.6862805889E-01 -0.3918033419E+00  0.3399935280E-01  0.1736642009E+01  0.6997910000E+02  0.6862805889E-01  0.7844223032E+00  0.4721195919E-04  0.4721195919E-04  0.6862805889E-01  0.0000000000E+00  0.0000000000E+00 -0.3918033419E+00  0.3399935280E-01  0.1736642009E+01  0.0000000000E+00  0.0000000000E+00  0.0000000000E+00  0.6862805889E-01  0.7844223032E+00  0.4721195919E-04  0.0000000000E+00  0.0000000000E+00  0.0000000000E+00
11  0.7088739226E-06  0.9863880180E-06  0.9862171284E-06  0.1587958774E-06  0.1905529262E-05  0.5438492190E-04  0.6732291328E-01 -0.3843194632E+00  0.3332181438E-01  0.1670279726E+01  0.2312517000E+03  0.6732291328E-01  0.7695044205E+00  0.5438492190E-04  0.5438492190E-04  0.6732291328E-01  0.0000000000E+00  0.0000000000E+00 -0.3843194632E+00  0.3332181438E-01  0.1670279726E+01  0.0000000000E+00  0.0000000000E+00  0.0000000000E+00  0.6732291328E-01  0.7695044205E+00  0.5438492190E-04  0.0000000000E+00  0.0000000000E+00  0.0000000000E+00
12  0.6029081018E-06  0.9658052254E-06  0.8960275828E-06  0.1337002250E-06  0.1632198413E-05 -0.1381051791E-04  0.6551355793E-01 -0.3738124308E+00  0.3270262525E-01  0.1619111313E+01  0.2384879000E+03  0.6551355793E-01  0.7488233939E+00 -0.1381051791E-04 -0.1381051791E-04  0.6551355793E-01  0.0000000000E+00  0.0000000000E+00 -0.3738124308E+00  0.3270262525E-01  0.1619111313E+01  0.0000000000E+00  0.0000000000E+00  0.0000000000E+00  0.6551355793E-01  0.7488233939E+00 -0.1381051791E-04  0.0000000000E+00  0.0000000000E+00  0.0000000000E+00
13  0.5752943834E-06  0.8805936450E-06  0.6793858337E-06  0.1263136704E-06  0.1566167204E-05 -0.3962282972E-04  0.6438851370E-01 -0.3672963375E+00  0.3233271620E-01  0.1612867889E+01  0.2435963000E+03  0.6438851370E-01  0.7359640793E+00 -0.3962282972E-04 -0.3962282972E-04  0.6438851370E-01  0.0000000000E+00  0.0000000000E+00 -0.3672963375E+00  0.3233271620E-01  0.1612867889E+01  0.0000000000E+00  0.0000000000E+00  0.0000000000E+00  0.6438851370E-01  0.7359640793E+00 -0.3962282972E-04  0.0000000000E+00  0.0000000000E+00  0.0000000000E+00
14  0.4783901665E-06  0.8391778310E-06  0.6835568038E-06  0.1137570146E-06  0.1307129385E-05 -0.1771548248E-04  0.6420115719E-01 -0.3662601645E+00  0.3224956787E-01  0.1632540760E+01  0.2508346000E+03  0.6420115719E-01  0.7338225844E+00 -0.1771548248E-04 -0.1771548248E-04  0.6420115719E-01  0.0000000000E+00  0.0000000000E+00 -0.3662601645E+00  0.3224956787E-01  0.1632540760E+01  0.0000000000E+00  0.0000000000E+00  0.0000000000E+00  0.6420115719E-01  0.7338225844E+00 -0.1771548248E-04  0.0000000000E+00  0.0000000000E+00  0.0000000000E+00
15  0.4199873618E-06  0.7736965599E-06  0.6359907636E-06  0.9803464005E-07  0.1145103744E-05 -0.2385829361E-04  0.6456689815E-01 -0.3683937885E+00  0.3244870454E-01  0.1647982239E+01  0.2559428000E+03  0.6456689815E-01  0.7380030227E+00 -0.2385829361E-04 -0.2385829361E-04  0.6456689815E-01  0.0000000000E+00  0.0000000000E+00 -0.3683937885E+00  0.3244870454E-01  0.1647982239E+01  0.0000000000E+00  0.0000000000E+00  0.0000000000E+00  0.6456689815E-01  0.7380030227E+00 -0.2385829361E-04  0.0000000000E+00  0.0000000000E+00  0.0000000000E+00
16  0.3943953201E-06  0.6780446684E-06  0.4775226717E-06  0.8908706705E-07  0.1067408912E-05 -0.8210671930E-04  0.6511748876E-01 -0.3715189127E+00  0.3284499001E-01  0.1651589962E+01  0.2631806000E+03  0.6511748876E-01  0.7442963023E+00 -0.8210671930E-04 -0.8210671930E-04  0.6511748876E-01  0.0000000000E+00  0.0000000000E+00 -0.3715189127E+00  0.3284499001E-01  0.1651589962E+01  0.0000000000E+00  0.0000000000E+00  0.0000000000E+00  0.6511748876E-01  0.7442963023E+00 -0.8210671930E-04  0.0000000000E+00  0.0000000000E+00  0.0000000000E+00
17  0.3232176311E-06  0.6356061579E-06  0.4373700297E-06  0.8138945978E-07  0.8767458518E-06 -0.1382375471E-03  0.6568943261E-01 -0.3747498815E+00  0.3324400235E-01  0.1654723971E+01  0.2682843000E+03  0.6568943261E-01  0.7508336504E+00 -0.1382375471E-03 -0.1382375471E-03  0.6568943261E-01  0.0000000000E+00  0.0000000000E+00 -0.3747498815E+00  0.3324400235E-01  0.1654723971E+01  0.0000000000E+00  0.0000000000E+00  0.0000000000E+00  0.6568943261E-01  0.7508336504E+00 -0.1382375471E-03  0.0000000000E+00  0.0000000000E+00  0.0000000000E+00
18  0.2812363616E-06  0.6050751073E-06  0.4184292322E-06  0.7382258874E-07  0.7730658486E-06 -0.1345257308E-03  0.6610148537E-01 -0.3771302205E+00  0.3341566490E-01  0.1663816390E+01  0.2733893000E+03  0.6610148537E-01  0.7555434350E+00 -0.1345257308E-03 -0.1345257308E-03  0.6610148537E-01  0.0000000000E+00  0.0000000000E+00 -0.3771302205E+00  0.3341566490E-01  0.1663816390E+01  0.0000000000E+00  0.0000000000E+00  0.0000000000E+00  0.6610148537E-01  0.7555434350E+00 -0.1345257308E-03  0.0000000000E+00  0.0000000000E+00  0.0000000000E+00
19  0.2750419633E-06  0.5678337161E-06  0.3441256913E-06  0.6625122812E-07  0.7613487697E-06 -0.7592599831E-04  0.6610005002E-01 -0.3772042231E+00  0.3324867647E-01  0.1670871313E+01  0.2784936000E+03  0.6610005002E-01  0.7555270288E+00 -0.7592599831E-04 -0.7592599831E-04  0.6610005002E-01  0.0000000000E+00  0.0000000000E+00 -0.3772042231E+00  0.3324867647E-01  0.1670871313E+01  0.0000000000E+00  0.0000000000E+00  0.0000000000E+00  0.6610005002E-01  0.7555270288E+00 -0.7592599831E-04  0.0000000000E+00  0.0000000000E+00  0.0000000000E+00
20  0.2376438213E-06  0.5535380574E-06  0.3071625344E-06  0.5900226491E-07  0.6623133950E-06 -0.1774342158E-04  0.6563771266E-01 -0.3746215897E+00  0.3286787684E-01  0.1666620825E+01  0.2857279000E+03  0.6563771266E-01  0.7502424885E+00 -0.1774342158E-04 -0.1774342158E-04  0.6563771266E-01  0.0000000000E+00  0.0000000000E+00 -0.3746215897E+00  0.3286787684E-01  0.1666620825E+01  0.0000000000E+00  0.0000000000E+00  0.0000000000E+00  0.6563771266E-01  0.7502424885E+00 -0.1774342158E-04  0.0000000000E+00  0.0000000000E+00  0.0000000000E+00
21  0.2004508469E-06  0.5430002559E-06  0.2767989654E-06  0.5488015787E-07  0.5628565232E-06 -0.3189748439E-05  0.6502733480E-01 -0.3711200912E+00  0.3253777782E-01  0.1653952923E+01  0.4467118000E+03  0.6502733480E-01  0.7432658376E+00 -0.3189748439E-05 -0.3189748439E-05  0.6502733480E-01  0.0000000000E+00  0.0000000000E+00 -0.3711200912E+00  0.3253777782E-01  0.1653952923E+01  0.0000000000E+00  0.0000000000E+00  0.0000000000E+00  0.6502733480E-01  0.7432658376E+00 -0.3189748439E-05  0.0000000000E+00  0.0000000000E+00  0.0000000000E+00
22  0.1897537638E-06  0.5241796276E-06  0.2314472707E-06  0.5141869047E-07  0.5368533728E-06 -0.2516279864E-04  0.6468777435E-01 -0.3691273556E+00  0.3243683117E-01  0.1644210639E+01  0.4518162000E+03  0.6468777435E-01  0.7393846440E+00 -0.2516279864E-04 -0.2516279864E-04  0.6468777435E-01  0.0000000000E+00  0.0000000000E+00 -0.3691273556E+00  0.3243683117E-01  0.1644210639E+01  0.0000000000E+00  0.0000000000E+00  0.0000000000E+00  0.6468777435E-01  0.7393846440E+00 -0.2516279864E-04  0.0000000000E+00  0.0000000000E+00  0.0000000000E+00
23  0.1733064237E-06  0.5053629127E-06  0.2197273149E-06  0.4660898977E-07  0.4976225283E-06 -0.4728258590E-04  0.6477646096E-01 -0.3696131631E+00  0.3253338557E-01  0.1644205365E+01  0.4569208000E+03  0.6477646096E-01  0.7403983366E+00 -0.4728258590E-04 -0.4728258590E-04  0.6477646096E-01  0.0000000000E+00  0.0000000000E+00 -0.3696131631E+00  0.3253338557E-01  0.1644205365E+01  0.0000000000E+00  0.0000000000E+00  0.0000000000E+00  0.6477646096E-01  0.7403983366E+00 -0.4728258590E-04  0.0000000000E+00  0.0000000000E+00  0.0000000000E+00
24  0.1512706744E-06  0.4893878394E-06  0.2080061076E-06  0.4275702460E-07  0.4426743457E-06 -0.4538929493E-04  0.6509008474E-01 -0.3714438807E+00  0.3266010421E-01  0.1650065186E+01  0.4641545000E+03  0.6509008474E-01  0.7439830729E+00 -0.4538929493E-04 -0.4538929493E-04  0.6509008474E-01  0.0000000000E+00  0.0000000000E+00 -0.3714438807E+00  0.3266010421E-01  0.1650065186E+01  0.0000000000E+00  0.0000000000E+00  0.0000000000E+00  0.6509008474E-01  0.7439830729E+00 -0.4538929493E-04  0.0000000000E+00  0.0000000000E+00  0.0000000000E+00
25  0.1375944368E-06  0.4700043029E-06  0.1781387951E-06  0.4041842104E-07  0.4066648580E-06 -0.2440985369E-04  0.6530797107E-01 -0.3727538753E+00  0.3268211970E-01  0.1653548890E+01  0.4692594000E+03  0.6530797107E-01  0.7464735250E+00 -0.2440985369E-04 -0.2440985369E-04  0.6530797107E-01  0.0000000000E+00  0.0000000000E+00 -0.3727538753E+00  0.3268211970E-01  0.1653548890E+01  0.0000000000E+00  0.0000000000E+00  0.0000000000E+00  0.6530797107E-01  0.7464735250E+00 -0.2440985369E-04  0.0000000000E+00  0.0000000000E+00  0.0000000000E+00
26  0.1252952333E-06  0.4463119322E-06  0.1634369381E-06  0.3791859877E-07  0.3714398260E-06 -0.3308645978E-05  0.6526907448E-01 -0.3725725105E+00  0.3258792542E-01  0.1650892785E+01  0.4743639000E+03  0.6526907448E-01  0.7460289349E+00 -0.3308645978E-05 -0.3308645978E-05  0.6526907448E-01  0.0000000000E+00  0.0000000000E+00 -0.3725725105E+00  0.3258792542E-01  0.1650892785E+01  0.0000000000E+00  0.0000000000E+00  0.0000000000E+00  0.6526907448E-01  0.7460289349E+00 -0.3308645978E-05  0.0000000000E+00  0.0000000000E+00  0.0000000000E+00
27  0.1130371870E-06  0.4248113536E-06  0.1549611755E-06  0.3498329295E-07  0.3360770013E-06  0.5098642722E-05  0.6503812556E-01 -0.3712510318E+00  0.3245269289E-01  0.1644717697E+01  0.4794696000E+03  0.6503812556E-01  0.7433891767E+00  0.5098642722E-05  0.5098642722E-05  0.6503812556E-01  0.0000000000E+00  0.0000000000E+00 -0.3712510318E+00  0.3245269289E-01  0.1644717697E+01  0.0000000000E+00  0.0000000000E+00  0.0000000000E+00  0.6503812556E-01  0.7433891767E+00  0.5098642722E-05  0.0000000000E+00  0.0000000000E+00  0.0000000000E+00
28  0.1031008895E-06  0.4085777606E-06  0.1360991480E-06  0.3228026828E-07  0.3085941263E-06  0.1819463967E-05  0.6477119390E-01 -0.3697004513E+00  0.3234521432E-01  0.1639198411E+01  0.4867036000E+03  0.6477119390E-01  0.7403381338E+00  0.1819463967E-05  0.1819463967E-05  0.6477119390E-01  0.0000000000E+00  0.0000000000E+00 -0.3697004513E+00  0.3234521432E-01  0.1639198411E+01  0.0000000000E+00  0.0000000000E+00  0.0000000000E+00  0.6477119390E-01  0.7403381338E+00  0.1819463967E-05  0.0000000000E+00  0.0000000000E+00  0.0000000000E+00
29  0.9243845066E-07  0.3942605532E-06  0.1220380026E-06  0.2984547955E-07  0.2796506634E-06 -0.5615048737E-05  0.6458052668E-01 -0.3685919553E+00  0.3228576680E-01  0.1635989347E+01  0.4918093000E+03  0.6458052668E-01  0.7381587975E+00 -0.5615048737E-05 -0.5615048737E-05  0.6458052668E-01  0.0000000000E+00  0.0000000000E+00 -0.3685919553E+00  0.3228576680E-01  0.1635989347E+01  0.0000000000E+00  0.0000000000E+00  0.0000000000E+00  0.6458052668E-01  0.7381587975E+00 -0.5615048737E-05  0.0000000000E+00  0.0000000000E+00  0.0000000000E+00
30  0.8333347794E-07  0.3789360968E-06  0.1164322073E-06  0.2733974632E-07  0.2529690707E-06 -0.1077482052E-04  0.6450078585E-01 -0.3681380042E+00  0.3226383778E-01  0.1634450732E+01  0.4969155000E+03  0.6450078585E-01  0.7372473556E+00 -0.1077482052E-04 -0.1077482052E-04  0.6450078585E-01  0.0000000000E+00  0.0000000000E+00 -0.3681380042E+00  0.3226383778E-01  0.1634450732E+01  0.0000000000E+00  0.0000000000E+00  0.0000000000E+00  0.6450078585E-01  0.7372473556E+00 -0.1077482052E-04  0.0000000000E+00  0.0000000000E+00  0.0000000000E+00
31  0.7676761182E-07  0.3605859539E-06  0.1086841108E-06  0.2484945659E-07  0.2313207990E-06 -0.1247367057E-04  0.6451795850E-01 -0.3682535411E+00  0.3226919465E-01  0.1633854781E+01  0.6580838000E+03  0.6451795850E-01  0.7374436399E+00 -0.1247367057E-04 -0.1247367057E-04  0.6451795850E-01  0.0000000000E+00  0.0000000000E+00 -0.3682535411E+00  0.3226919465E-01  0.1633854781E+01  0.0000000000E+00  0.0000000000E+00  0.0000000000E+00  0.6451795850E-01  0.7374436399E+00 -0.1247367057E-04  0.0000000000E+00  0.0000000000E+00  0.0000000000E+00
32  0.6836441661E-07  0.3425872950E-06  0.9902681735E-07  0.2268792288E-07  0.2053506395E-06 -0.1235237442E-04  0.6459023533E-01 -0.3686866130E+00  0.3229385263E-01  0.1634068328E+01  0.6653212000E+03  0.6459023533E-01  0.7382697679E+00 -0.1235237442E-04 -0.1235237442E-04  0.6459023533E-01  0.0000000000E+00  0.0000000000E+00 -0.3686866130E+00  0.3229385263E-01  0.1634068328E+01  0.0000000000E+00  0.0000000000E+00  0.0000000000E+00  0.6459023533E-01  0.7382697679E+00 -0.1235237442E-04  0.0000000000E+00  0.0000000000E+00  0.0000000000E+00
33  0.5937657009E-07  0.3277176887E-06  0.8935005051E-07  0.2081598380E-07  0.1789098788E-06 -0.1277654069E-04  0.6465794363E-01 -0.3690863660E+00  0.3232253570E-01  0.1634752678E+01  0.6704263000E+03  0.6465794363E-01  0.7390436773E+00 -0.1277654069E-04 -0.1277654069E-04  0.6465794363E-01  0.0000000000E+00  0.0000000000E+00 -0.3690863660E+00  0.3232253570E-01  0.1634752678E+01  0.0000000000E+00  0.0000000000E+00  0.0000000000E+00  0.6465794363E-01  0.7390436773E+00 -0.1277654069E-04  0.0000000000E+00  0.0000000000E+00  0.0000000000E+00
34  0.5337709972E-07  0.3160486084E-06  0.7922909891E-07  0.1902814022E-07  0.1611249409E-06 -0.1430790851E-04  0.6466817726E-01 -0.3691476357E+00  0.3233375743E-01  0.1635013366E+01  0.6755317000E+03  0.6466817726E-01  0.7391606482E+00 -0.1430790851E-04 -0.1430790851E-04  0.6466817726E-01  0.0000000000E+00  0.0000000000E+00 -0.3691476357E+00  0.3233375743E-01  0.1635013366E+01  0.0000000000E+00  0.0000000000E+00  0.0000000000E+00  0.6466817726E-01  0.7391606482E+00 -0.1430790851E-04  0.0000000000E+00  0.0000000000E+00  0.0000000000E+00
35  0.4851704078E-07  0.3072873862E-06  0.7068909960E-07  0.1734157558E-07  0.1472420092E-06 -0.1683754587E-04  0.6460872825E-01 -0.3688033423E+00  0.3231819302E-01  0.1634215888E+01  0.6806396000E+03  0.6460872825E-01  0.7384811430E+00 -0.1683754587E-04 -0.1683754587E-04  0.6460872825E-01  0.0000000000E+00  0.0000000000E+00 -0.3688033423E+00  0.3231819302E-01  0.1634215888E+01  0.0000000000E+00  0.0000000000E+00  0.0000000000E+00  0.6460872825E-01  0.7384811430E+00 -0.1683754587E-04  0.0000000000E+00  0.0000000000E+00  0.0000000000E+00
36  0.4357362961E-07  0.3009379330E-06  0.6368701931E-07  0.1586209923E-07  0.1339579915E-06 -0.1962820582E-04  0.6451516684E-01 -0.3682623375E+00  0.3228675660E-01  0.1632702090E+01  0.6878757000E+03  0.6451516684E-01  0.7374117312E+00 -0.1962820582E-04 -0.1962820582E-04  0.6451516684E-01  0.0000000000E+00  0.0000000000E+00 -0.3682623375E+00  0.3228675660E-01  0.1632702090E+01  0.0000000000E+00  0.0000000000E+00  0.0000000000E+00  0.6451516684E-01  0.7374117312E+00 -0.1962820582E-04  0.0000000000E+00  0.0000000000E+00  0.0000000000E+00
37  0.4012670551E-07  0.2951316200E-06  0.5727064189E-07  0.1455284174E-07  0.1247689598E-06 -0.2212182783E-04  0.6444033501E-01 -0.3678324246E+00  0.3226039409E-01  0.1631441317E+01  0.6929809000E+03  0.6444033501E-01  0.7365563994E+00 -0.2212182783E-04 -0.2212182783E-04  0.6444033501E-01  0.0000000000E+00  0.0000000000E+00 -0.3678324246E+00  0.3226039409E-01  0.1631441317E+01  0.0000000000E+00  0.0000000000E+00  0.0000000000E+00  0.6444033501E-01  0.7365563994E+00 -0.2212182783E-04  0.0000000000E+00  0.0000000000E+00  0.0000000000E+00
38  0.3767744224E-07  0.2893030724E-06  0.5281138720E-07  0.1334601023E-07  0.1180789495E-06 -0.2359942224E-04  0.6441525737E-01 -0.3676939428E+00  0.3225231726E-01  0.1631078675E+01  0.6980873000E+03  0.6441525737E-01  0.7362697606E+00 -0.2359942224E-04 -0.2359942224E-04  0.6441525737E-01  0.0000000000E+00  0.0000000000E+00 -0.3676939428E+00  0.3225231726E-01  0.1631078675E+01  0.0000000000E+00  0.0000000000E+00  0.0000000000E+00  0.6441525737E-01  0.7362697606E+00 -0.2359942224E-04  0.0000000000E+00  0.0000000000E+00  0.0000000000E+00
39  0.3456121231E-07  0.2826781012E-06  0.4935711902E-07  0.1231187165E-07  0.1096617014E-06 -0.2418554517E-04  0.6443408230E-01 -0.3678118974E+00  0.3226123371E-01  0.1631484018E+01  0.7031930000E+03  0.6443408230E-01  0.7364849306E+00 -0.2418554517E-04 -0.2418554517E-04  0.6443408230E-01  0.0000000000E+00  0.0000000000E+00 -0.3678118974E+00  0.3226123371E-01  0.1631484018E+01  0.0000000000E+00  0.0000000000E+00  0.0000000000E+00  0.6443408230E-01  0.7364849306E+00 -0.2418554517E-04  0.0000000000E+00  0.0000000000E+00  0.0000000000E+00
40  0.3084099954E-07  0.2758241234E-06  0.4476228097E-07  0.1149470216E-07  0.9975082919E-07 -0.2431539766E-04  0.6446785213E-01 -0.3680160892E+00  0.3227609142E-01  0.1632072842E+01  0.7082973000E+03  0.6446785213E-01  0.7368709216E+00 -0.2431539766E-04 -0.2431539766E-04  0.6446785213E-01  0.0000000000E+00  0.0000000000E+00 -0.3680160892E+00  0.3227609142E-01  0.1632072842E+01  0.0000000000E+00  0.0000000000E+00  0.0000000000E+00  0.6446785213E-01  0.7368709216E+00 -0.2431539766E-04  0.0000000000E+00  0.0000000000E+00  0.0000000000E+00
41  0.2751269882E-07  0.2695141503E-06  0.3996245968E-07  0.1077257131E-07  0.9088164537E-07 -0.2440025733E-04  0.6448819208E-01 -0.3681400773E+00  0.3228547903E-01  0.1632367162E+01  0.8651313000E+03  0.6448819208E-01  0.7371034082E+00 -0.2440025733E-04 -0.2440025733E-04  0.6448819208E-01  0.0000000000E+00  0.0000000000E+00 -0.3681400773E+00  0.3228547903E-01  0.1632367162E+01  0.0000000000E+00  0.0000000000E+00  0.0000000000E+00  0.6448819208E-01  0.7371034082E+00 -0.2440025733E-04  0.0000000000E+00  0.0000000000E+00  0.0000000000E+00
42  0.2525099500E-07  0.2642043496E-06  0.3649206044E-07  0.1004970714E-07  0.8485867133E-07 -0.2443532704E-04  0.6448211608E-01 -0.3681085339E+00  0.3228327386E-01  0.1632235112E+01  0.8723677000E+03  0.6448211608E-01  0.7370339593E+00 -0.2443532704E-04 -0.2443532704E-04  0.6448211608E-01  0.0000000000E+00  0.0000000000E+00 -0.3681085339E+00  0.3228327386E-01  0.1632235112E+01  0.0000000000E+00  0.0000000000E+00  0.0000000000E+00  0.6448211608E-01  0.7370339593E+00 -0.2443532704E-04  0.0000000000E+00  0.0000000000E+00  0.0000000000E+00
43  0.2382204288E-07  0.2594958116E-06  0.3415945261E-07  0.9389144935E-08  0.8114970282E-07 -0.2425127140E-04  0.6445238911E-01 -0.3679396569E+00  0.3226916237E-01  0.1631779041E+01  0.8774721000E+03  0.6445238911E-01  0.7366941785E+00 -0.2425127140E-04 -0.2425127140E-04  0.6445238911E-01  0.0000000000E+00  0.0000000000E+00 -0.3679396569E+00  0.3226916237E-01  0.1631779041E+01  0.0000000000E+00  0.0000000000E+00  0.0000000000E+00  0.6445238911E-01  0.7366941785E+00 -0.2425127140E-04  0.0000000000E+00  0.0000000000E+00  0.0000000000E+00
44  0.2268915105E-07  0.2556573481E-06  0.3251167694E-07  0.8858397447E-08  0.7835892468E-07 -0.2314173758E-04  0.6441193039E-01 -0.3677107866E+00  0.3224706710E-01  0.1631177715E+01  0.8825801000E+03  0.6441193039E-01  0.7362317332E+00 -0.2314173758E-04 -0.2314173758E-04  0.6441193039E-01  0.0000000000E+00  0.0000000000E+00 -0.3677107866E+00  0.3224706710E-01  0.1631177715E+01  0.0000000000E+00  0.0000000000E+00  0.0000000000E+00  0.6441193039E-01  0.7362317332E+00 -0.2314173758E-04  0.0000000000E+00  0.0000000000E+00  0.0000000000E+00
45  0.2160195860E-07  0.2517424586E-06  0.3132609750E-07  0.8424782732E-08  0.7552586246E-07 -0.2130196206E-04  0.6437593022E-01 -0.3675105716E+00  0.3222408323E-01  0.1630622822E+01  0.8876851000E+03  0.6437593022E-01  0.7358202493E+00 -0.2130196206E-04 -0.2130196206E-04  0.6437593022E-01  0.0000000000E+00  0.0000000000E+00 -0.3675105716E+00  0.3222408323E-01  0.1630622822E+01  0.0000000000E+00  0.0000000000E+00  0.0000000000E+00  0.6437593022E-01  0.7358202493E+00 -0.2130196206E-04  0.0000000000E+00  0.0000000000E+00  0.0000000000E+00
46  0.2044100280E-07  0.2474210402E-06  0.3015501532E-07  0.8028065099E-08  0.7223136375E-07 -0.1926445942E-04  0.6435431469E-01 -0.3673951392E+00  0.3220648323E-01  0.1630262395E+01  0.8927897000E+03  0.6435431469E-01  0.7355731827E+00 -0.1926445942E-04 -0.1926445942E-04  0.6435431469E-01  0.0000000000E+00  0.0000000000E+00 -0.3673951392E+00  0.3220648323E-01  0.1630262395E+01  0.0000000000E+00  0.0000000000E+00  0.0000000000E+00  0.6435431469E-01  0.7355731827E+00 -0.1926445942E-04  0.0000000000E+00  0.0000000000E+00  0.0000000000E+00
47  0.1899429437E-07  0.2428069125E-06  0.2863396445E-07  0.7646491465E-08  0.6808766076E-07 -0.1754061040E-04  0.6434743909E-01 -0.3673645542E+00  0.3219629381E-01  0.1630128229E+01  0.8978951000E+03  0.6434743909E-01  0.7354945943E+00 -0.1754061040E-04 -0.1754061040E-04  0.6434743909E-01  0.0000000000E+00  0.0000000000E+00 -0.3673645542E+00  0.3219629381E-01  0.1630128229E+01  0.0000000000E+00  0.0000000000E+00  0.0000000000E+00  0.6434743909E-01  0.7354945943E+00 -0.1754061040E-04  0.0000000000E+00  0.0000000000E+00  0.0000000000E+00
48  0.1745343546E-07  0.2382656220E-06  0.2681215641E-07  0.7274799055E-08  0.6367440145E-07 -0.1618396886E-04  0.6434766585E-01 -0.3673733277E+00  0.3219049432E-01  0.1630116884E+01  0.9051299000E+03  0.6434766585E-01  0.7354971862E+00 -0.1618396886E-04 -0.1618396886E-04  0.6434766585E-01  0.0000000000E+00  0.0000000000E+00 -0.3673733277E+00  0.3219049432E-01  0.1630116884E+01  0.0000000000E+00  0.0000000000E+00  0.0000000000E+00  0.6434766585E-01  0.7354971862E+00 -0.1618396886E-04  0.0000000000E+00  0.0000000000E+00  0.0000000000E+00
49  0.1625153799E-07  0.2339171982E-06  0.2510373692E-07  0.6908302688E-08  0.6000729023E-07 -0.1504035775E-04  0.6434451405E-01 -0.3673610212E+00  0.3218354745E-01  0.1630057442E+01  0.9102345000E+03  0.6434451405E-01  0.7354611609E+00 -0.1504035775E-04 -0.1504035775E-04  0.6434451405E-01  0.0000000000E+00  0.0000000000E+00 -0.3673610212E+00  0.3218354745E-01  0.1630057442E+01  0.0000000000E+00  0.0000000000E+00  0.0000000000E+00  0.6434451405E-01  0.7354611609E+00 -0.1504035775E-04  0.0000000000E+00  0.0000000000E+00  0.0000000000E+00
50  0.1554893305E-07  0.2301859611E-06  0.2379032401E-07  0.6556467926E-08  0.5761124784E-07 -0.1344226125E-04  0.6433167239E-01 -0.3672921912E+00  0.3217108406E-01  0.1629836622E+01  0.9153420000E+03  0.6433167239E-01  0.7353143801E+00 -0.1344226125E-04 -0.1344226125E-04  0.6433167239E-01  0.0000000000E+00  0.0000000000E+00 -0.3672921912E+00  0.3217108406E-01  0.1629836622E+01  0.0000000000E+00  0.0000000000E+00  0.0000000000E+00  0.6433167239E-01  0.7353143801E+00 -0.1344226125E-04  0.0000000000E+00  0.0000000000E+00  0.0000000000E+00
51  0.1503993804E-07  0.2267631695E-06  0.2275370501E-07  0.6242439119E-08  0.5584135646E-07 -0.1143010839E-04  0.6430964210E-01 -0.3671706392E+00  0.3215323785E-01  0.1629463415E+01  0.1072232100E+04  0.6430964210E-01  0.7350625727E+00 -0.1143010839E-04 -0.1143010839E-04  0.6430964210E-01  0.0000000000E+00  0.0000000000E+00 -0.3671706392E+00  0.3215323785E-01  0.1629463415E+01  0.0000000000E+00  0.0000000000E+00  0.0000000000E+00  0.6430964210E-01  0.7350625727E+00 -0.1143010839E-04  0.0000000000E+00  0.0000000000E+00  0.0000000000E+00
52  0.1454943459E-07  0.2234953276E-06  0.2179408715E-07  0.5967728099E-08  0.5420960135E-07 -0.9332554340E-05  0.6428372134E-01 -0.3670272791E+00  0.3213338443E-01  0.1629031669E+01  0.1077337400E+04  0.6428372134E-01  0.7347662971E+00 -0.9332554340E-05 -0.9332554340E-05  0.6428372134E-01  0.0000000000E+00  0.0000000000E+00 -0.3670272791E+00  0.3213338443E-01  0.1629031669E+01  0.0000000000E+00  0.0000000000E+00  0.0000000000E+00  0.6428372134E-01  0.7347662971E+00 -0.9332554340E-05  0.0000000000E+00  0.0000000000E+00  0.0000000000E+00
53  0.1402368932E-07  0.2202326532E-06  0.2086628754E-07  0.5710606285E-08  0.5247933332E-07 -0.7567713172E-05  0.6425982336E-01 -0.3668960251E+00  0.3211551421E-01  0.1628641034E+01  0.1082443200E+04  0.6425982336E-01  0.7344931420E+00 -0.7567713172E-05 -0.7567713172E-05  0.6425982336E-01  0.0000000000E+00  0.0000000000E+00 -0.3668960251E+00  0.3211551421E-01  0.1628641034E+01  0.0000000000E+00  0.0000000000E+00  0.0000000000E+00  0.6425982336E-01  0.7344931420E+00 -0.7567713172E-05  0.0000000000E+00  0.0000000000E+00  0.0000000000E+00
54  0.1344195064E-07  0.2169206972E-06  0.1995558059E-07  0.5457768232E-08  0.5056095491E-07 -0.6326997415E-05  0.6424154598E-01 -0.3667970550E+00  0.3210194442E-01  0.1628346906E+01  0.1089678100E+04  0.6424154598E-01  0.7342842305E+00 -0.6326997415E-05 -0.6326997415E-05  0.6424154598E-01  0.0000000000E+00  0.0000000000E+00 -0.3667970550E+00  0.3210194442E-01  0.1628346906E+01  0.0000000000E+00  0.0000000000E+00  0.0000000000E+00  0.6424154598E-01  0.7342842305E+00 -0.6326997415E-05  0.0000000000E+00  0.0000000000E+00  0.0000000000E+00