# vtk DataFile Version 2.0
FUN3D:global_image_vtk
ASCII
DATASET UNSTRUCTURED_GRID
POINTS 213 double
   -0.5474685441687832E-02    0.5000000000000080E-30    0.2504941971167291E+01
    0.1212121212121142E-30    0.8038138598670530E-04    0.5000000000000000E-30
    0.1245419105183472E+01    0.1000000000000005E-29    0.2504941971167291E+01
    0.1212121212121142E-30    0.1039425058013133E-03    0.1000000000000000E-29
    0.2497696093128780E+01    0.5000000000000027E-30    0.2504941971167291E+01
    0.1212121212121142E-30    0.1101298164665754E-03    0.5000000000000000E-30
    0.3750590968915824E+01    0.1000000000000000E-29    0.2504941971167291E+01
    0.1212121212121142E-30    0.1356499004943612E-03    0.1000000000000000E-29
    0.5003221331742151E+01    0.4999999999999974E-30    0.2504941971167291E+01
    0.1212121212121142E-30    0.9668873038898296E-04    0.5000000000000000E-30
    0.5004676687979097E+01    0.9999999999999948E-30    0.1281291202167040E+01
    0.4999999999999549E-30    0.1638053019384356E-03    0.1000000000000000E-29
    0.5004772673778115E+01    0.4999999999999921E-30    0.2775079906482894E-01
    0.9999999999999629E-30    0.1903478008447590E-03    0.5000000000000000E-30
    0.5003581183341212E+01    0.1000000000000000E-29   -0.1225853508883529E+01
    0.4999999999999655E-30    0.1607765204486578E-03    0.1000000000000000E-29
    0.5001952533742191E+01    0.5000000000000000E-30   -0.2496589036641631E+01
    0.1212121212121163E-30    0.1082258890302557E-03    0.5000000000000000E-30
    0.3750348111606544E+01    0.1000000000000000E-29   -0.2496589036641631E+01
    0.1212121212121163E-30    0.1458753696815807E-03    0.1000000000000000E-29
    0.2498611462994928E+01    0.5000000000000027E-30   -0.2496589036641631E+01
    0.1212121212121163E-30    0.1008933264248224E-03    0.5000000000000000E-30
    0.1247175269333276E+01    0.1000000000000005E-29   -0.2496589036641631E+01
    0.1212121212121163E-30    0.1108587619169654E-03    0.1000000000000000E-29
   -0.3383959865719266E-02    0.5000000000000054E-30   -0.2496589036641631E+01
    0.1212121212121163E-30    0.8107259626494168E-04    0.5000000000000000E-30
   -0.4257768979765597E-02    0.1000000000000005E-29   -0.1225734811642590E+01
    0.4999999999999655E-30    0.3415458742295187E-04    0.1000000000000000E-29
   -0.5251592448509257E-02    0.5000000000000080E-30    0.2619486024420453E-01
    0.9999999999999629E-30    0.1038724387187884E-03    0.5000000000000000E-30
   -0.5676060312426845E-02    0.1000000000000011E-29    0.1278221569065707E+01
    0.4999999999999576E-30    0.8224601702150336E-04    0.1000000000000000E-29
    0.9003209617952581E+00    0.5000000000000080E-30    0.1608979112280158E+01
    0.9999999999999577E-30    0.8704140727672227E-04    0.5000000000000000E-30
    0.3983172210692289E+01    0.1000000000000000E-29   -0.1561211904840279E+01
    0.4999999999999655E-30    0.1757116720370600E-03    0.1000000000000000E-29
    0.4035602039224469E+01    0.5000000000000000E-30    0.1486760030415520E+01
    0.9999999999999523E-30    0.1713312862106631E-03    0.5000000000000000E-30
    0.1036613723302902E+01    0.1000000000000005E-29   -0.1455626429916848E+01
    0.4999999999999655E-30    0.1047189301532914E-03    0.1000000000000000E-29
    0.1094353480630802E+01    0.5000000000000080E-30   -0.2964622010671852E+00
    0.9999999999999523E-30    0.1260590236917269E-03    0.5000000000000000E-30
    0.7298400267480001E+00    0.1000000000000011E-29    0.6874684746719117E+00
    0.4999999999999203E-30    0.1044598640544958E-03    0.1000000000000000E-29
    0.1617018659308944E+01    0.5000000000000080E-30    0.8553208024939404E+00
    0.9999999999999150E-30    0.1529810904974394E-03    0.5000000000000000E-30
    0.2143199662875790E+01    0.1000000000000005E-29   -0.1627128509216730E+01
    0.4999999999999655E-30    0.1606170425226816E-03    0.1000000000000000E-29
    0.4088840445400889E+01    0.4999999999999974E-30   -0.4351047825936264E+00
    0.9999999999999682E-30    0.2719933294109134E-03    0.5000000000000000E-30
    0.2977916511248925E+01    0.1000000000000005E-29   -0.8334991483094466E+00
    0.4999999999999229E-30    0.2245596931861327E-03    0.1000000000000000E-29
    0.3044093241383418E+01    0.5000000000000027E-30   -0.1814361225108581E+01
    0.9999999999999682E-30    0.1617000112420497E-03    0.5000000000000000E-30
    0.3427866614805211E+01    0.1000000000000000E-29    0.3813904839972497E+00
    0.4999999999999602E-30    0.2936955483429093E-03    0.1000000000000000E-29
    0.4313225355351749E+01    0.4999999999999974E-30    0.5489133376342530E+00
    0.9999999999999150E-30    0.2313009573592373E-03    0.5000000000000000E-30
    0.1823032737597358E+01    0.1000000000000005E-29    0.1771265193544254E+01
    0.4999999999999549E-30    0.1836202887151583E-03    0.1000000000000000E-29
    0.2806311152168375E+01    0.5000000000000027E-30    0.1358629373600680E+01
    0.9999999999999523E-30    0.1943492163983818E-03    0.5000000000000000E-30
    0.1891860875936711E+01    0.1000000000000005E-29   -0.8481310365607512E+00
    0.4999999999999229E-30    0.1670645501816170E-03    0.1000000000000000E-29
    0.2268769200166909E+01    0.5000000000000080E-30    0.7723691819196567E-01
    0.9999999999999629E-30    0.2072307783085314E-03    0.5000000000000000E-30
    0.5000000000000000E+01   -0.8222795340176352E-46    0.2504941971167291E+01
    0.1212121212121142E-30    0.1250000000000000E+01   -0.8222795340176352E-46
    0.5000000000000000E+01   -0.8222795340176352E-46    0.2504941971167291E+01
    0.1212121212121142E-30    0.2500000000000000E+01   -0.8222795340176352E-46
    0.5000000000000000E+01   -0.8222795340176352E-46    0.2504941971167291E+01
    0.1212121212121142E-30    0.3750000000000000E+01   -0.8222795340176352E-46
    0.5000000000000000E+01   -0.8222795340176352E-46    0.2504941971167291E+01
    0.1212121212121142E-30    0.5000000000000000E+01   -0.8222795340176352E-46
    0.3750000000000000E+01   -0.8222795340176352E-46    0.2504941971167291E+01
    0.1212121212121142E-30    0.5000000000000000E+01   -0.8222795340176352E-46
    0.2500000000000000E+01   -0.8222795340176352E-46    0.2504941971167291E+01
    0.1212121212121142E-30    0.5000000000000000E+01   -0.8222795340176352E-46
    0.1250000000000000E+01   -0.8222795340176352E-46    0.2504941971167291E+01
    0.1212121212121142E-30    0.5000000000000000E+01   -0.8222795340176352E-46
   -0.3539326924951395E-18   -0.8222795340176352E-46    0.2504941971167291E+01
    0.1212121212121142E-30    0.5000000000000000E+01   -0.8222795340176352E-46
   -0.3539326924951395E-18   -0.8222795340176352E-46    0.2504941971167291E+01
    0.1212121212121142E-30    0.3750000000000000E+01   -0.8222795340176352E-46
   -0.3539326924951395E-18   -0.8222795340176352E-46    0.2504941971167291E+01
    0.1212121212121142E-30    0.2500000000000000E+01   -0.8222795340176352E-46
   -0.3539326924951395E-18   -0.8222795340176352E-46    0.2504941971167291E+01
    0.1212121212121142E-30    0.1250000000000000E+01   -0.8222795340176352E-46
    0.9588956434871095E+00    0.4088323204876331E-30    0.2504941971167291E+01
    0.1212121212121142E-30    0.9696525519543873E+00    0.8253355966550613E-30
    0.3981953078951400E+01    0.7369699780826551E-31    0.2504941971167291E+01
    0.1212121212121142E-30    0.4070563854751271E+01    0.1516277355821761E-30
    0.4036122187252336E+01    0.5331184872985098E-30    0.2504941971167291E+01
    0.1212121212121142E-30    0.1017567520094671E+01    0.8139234257757276E-30
    0.9637572773153884E+00   -0.9331067766529186E-32    0.2504941971167291E+01
    0.1212121212121142E-30    0.3973598203142229E+01    0.1306014370153684E-30
    0.1546540136992395E+01    0.8002905657875786E-31    0.2504941971167291E+01
    0.1212121212121142E-30    0.2931570169315600E+01    0.3996885550954774E-30
    0.6973799521244312E+00    0.3481309067927191E-32    0.2504941971167291E+01
    0.1212121212121142E-30    0.3070319952453756E+01    0.2100037182682568E-30
    0.8903742148356888E+00    0.7712488796261421E-31    0.2504941971167291E+01
    0.1212121212121142E-30    0.2056562238187738E+01    0.4294668085387998E-30
    0.2183041995146011E+01    0.3782461580976764E-31    0.2504941971167291E+01
    0.1212121212121142E-30    0.3960694449828019E+01    0.2259705361705880E-30
    0.3855844872709870E+01    0.1784932175605958E-30    0.2504941971167291E+01
    0.1212121212121142E-30    0.2933250588118631E+01    0.3558534735526650E-30
    0.3152611367438027E+01    0.1115283363385502E-30    0.2504941971167291E+01
    0.1212121212121142E-30    0.3637668388416194E+01    0.2959845527139743E-30
    0.3103307385241868E+01    0.5185271477268773E-31    0.2504941971167291E+01
    0.1212121212121142E-30    0.4332607813099731E+01    0.1521436499771180E-30
    0.3266711045517940E+01    0.3601961362730523E-30    0.2504941971167291E+01
    0.1212121212121142E-30    0.1889656617463739E+01    0.6353768785667191E-30
    0.4232537554484796E+01    0.2580489315425577E-30    0.2504941971167291E+01
    0.1212121212121142E-30    0.1918626969802351E+01    0.4090791405802740E-30
    0.1905522374036519E+01    0.6572817491134618E-30    0.2504941971167291E+01
    0.1212121212121142E-30    0.7226290832134608E+00    0.8977306600899392E-30
    0.2879767723645806E+01    0.6107141644542998E-30    0.2504941971167291E+01
    0.1212121212121142E-30    0.9080945892181979E+00    0.8180347387425641E-30
    0.2012711365064515E+01    0.3615868018452927E-30    0.2504941971167291E+01
    0.1212121212121142E-30    0.1767082390977754E+01    0.7060364642881277E-30
    0.2669681472994637E+01    0.1849800474537964E-30    0.2504941971167291E+01
    0.1212121212121142E-30    0.2853394335010791E+01    0.4820509466859436E-30
    0.5000000000000000E+01   -0.8222795340176352E-46    0.1250000000000000E+01
   -0.8222795340176352E-46    0.5000000000000000E+01   -0.8222795340176352E-46
    0.5000000000000000E+01   -0.8222795340176352E-46   -0.3539326924951395E-18
[...]
POINT_DATA 213
SCALARS rho double 1
LOOKUP_TABLE default
   0.1346108316266516E+01
  -0.1177608889883792E-30
   0.9572039998651987E+00
   0.2108874293797161E-31
   0.9461172176873240E+00
  -0.8777077112751417E-31
   0.9421724422727893E+00
   0.2463028704390394E-31
   0.8436076752869083E+00
  -0.1732597040284530E-31
   0.7742023688801138E+00
   0.2325429216570048E-30
   0.7627583543036004E+00
   0.8548765168821301E-31
   0.7661562012463261E+00
   0.3222200612067301E-31
   0.8310489475292506E+00
  -0.1016795665572280E-30
   0.9353548243040248E+00
   0.3068730497233979E-31
   0.9343897288328683E+00
  -0.7551866946938156E-31
   0.9616167925235181E+00
  -0.8801524621964094E-32
   0.1448475453689869E+01
  -0.2080910580531866E-30
   0.1495420693460794E+01
  -0.7365293102443606E-30
   0.1646729694960372E+01
  -0.3640616153975228E-30
   0.1426611750620135E+01
  -0.5489176093756984E-30
   0.1009807294819761E+01
  -0.4443517877269760E-31
   0.9511451599293854E+00
  -0.2350095877563354E-31
   0.9438202812776177E+00
   0.1502190653187260E-31
   0.9574649706999399E+00
  -0.1788241073635470E-31
   0.9414971310259771E+00
   0.1314199479504879E-31
   0.1037119050556826E+01
  -0.2075618300365983E-30
   0.9258166083585067E+00
  -0.3401752257433216E-31
   0.9322402496848164E+00
  -0.7674207922069734E-31
   0.9538058253106321E+00
  -0.3489748564269105E-31
   0.9520452717076686E+00
  -0.4171330880909116E-31
   0.9351035433534971E+00
  -0.1567348339836355E-31
   0.9565496449382386E+00
  -0.2962286676555926E-31
   0.9378638716719702E+00
  -0.1486939922461715E-32
   0.9303460519961211E+00
  -0.2936548181960949E-31
   0.9446467733550160E+00
   0.1257888791173555E-31
   0.8862352680595992E+00
   0.5292301995326263E-31
   0.9424046351330529E+00
   0.1081191112059046E-30
   0.9637013744969697E+00
  -0.3482002197008434E-31
   0.1008356272019702E+01
  -0.1320218972105489E-32
   0.1006712429694677E+01
   0.1297318175780313E-32
   0.1001958930254196E+01
  -0.1468366766873674E-32
   0.1003217522142328E+01
  -0.4892409097992799E-32
   0.1004120115988627E+01
  -0.6469113539252364E-32
   0.1005208064901283E+01
  -0.5564399498427447E-32
   0.1004249961601127E+01
  -0.1802699849623035E-32
   0.1008268330111678E+01
  -0.4612036154524031E-32
   0.1023869441009851E+01
   0.4401466380762524E-33
   0.1063755461254339E+01
   0.3369728190551357E-32
   0.1019394088230451E+01
   0.2549105352240252E-32
   0.1001777911837218E+01
  -0.2389864573350281E-32
   0.9645774236074076E+00
  -0.5007782773787634E-31
   0.1005263328276716E+01
  -0.4528993194191083E-32
   0.1000745736284074E+01
  -0.6736925272593718E-33
   0.1008696549295289E+01
  -0.3737980251014295E-32
   0.1008037948460685E+01
   0.1511580671098297E-32
   0.1002353862054786E+01
  -0.4724772501245801E-32
   0.9980195530460346E+00
  -0.2360602340182738E-32
   0.1000592769366099E+01
  -0.3289514929730295E-32
   0.1001620641866597E+01
  -0.4554855531220156E-32
   0.9828039326305038E+00
  -0.1135559691753884E-31
   0.9843899727141894E+00
  -0.8360029381280032E-32
   0.9834136048336661E+00
  -0.4733372432404246E-31
   0.9790327232747230E+00
  -0.3586502076391988E-31
   0.9904757376039519E+00
  -0.1230853169424374E-31
   0.9935193469040804E+00
  -0.2614894760786603E-32
   0.1002008894419629E+01
  -0.1286899221448399E-32
   0.1002132240800754E+01
  -0.1236464958602981E-32
   0.1002273087527474E+01
  -0.7100227187469796E-33
   0.1001793578304488E+01
  -0.5490855527351691E-33
   0.1009816088048102E+01
   0.1298053666807752E-32
   0.1006507955586487E+01
  -0.3875899833851582E-32
   0.9561125617440199E+00
  -0.3365993397931705E-31
   0.9252807407579381E+00
  -0.3956040071474180E-31
   0.1007053966741864E+01
   0.7701779088478617E-33
   0.1004490981233020E+01
   0.8722830751728147E-34
   0.9145128351469559E+00
  -0.4174570695015950E-31
   0.9091570307109127E+00
  -0.2042561499292186E-31
   0.8752463079206533E+00
  -0.1988129866523061E-31
   0.9767979597117052E+00
  -0.1298079758660676E-31
   0.1000541360239591E+01
  -0.2765355809697093E-32
   0.1005826549298521E+01
   0.3753687728136355E-33
   0.1012896701661272E+01
   0.1001363024082048E-32
   0.1011680292166820E+01
   0.7244242606521335E-33
   0.1010415973633416E+01
   0.1112843669510613E-33
   0.1005456587394375E+01
   0.3299927266802784E-33
   0.9909167514659180E+00
  -0.7162256797770791E-32
   0.1005149610919186E+01
  -0.1645884635295359E-32
   0.9860895085425858E+00
  -0.2084164809419659E-32
   0.1005593206459354E+01
  -0.1807825475425563E-32
   0.1004239922231598E+01
  -0.2052520609970740E-32
   0.1002885969212014E+01
  -0.1680771342543645E-32
   0.1003350063079958E+01
  -0.1850814606063997E-32
   0.1003997944129842E+01
  -0.2025733606698804E-32
   0.1005115344748414E+01
  -0.5167190558992074E-32
   0.1003223209696066E+01
  -0.5847642512222273E-32
   0.1002669123753553E+01
  -0.4083145047261544E-32
   0.1002589508107016E+01
  -0.4180590499830222E-32
   0.1004069040379247E+01
  -0.3733398074312735E-32
   0.1004304991188327E+01
  -0.4571198934627869E-32
   0.1001643157075215E+01
  -0.3316477238819559E-32
   0.1002279136469171E+01
  -0.3841458191006890E-32
   0.1002546782087984E+01
  -0.3711249948004800E-32
   0.1003472000611735E+01
  -0.5345476984151295E-32
   0.1003380240373208E+01
  -0.5306870085545995E-32
   0.1003233137299616E+01
  -0.2892386724202240E-32
   0.1004429899221876E+01
  -0.5442574694448611E-32
   0.1004324039411522E+01
  -0.5630343738181837E-32
   0.1003653018140758E+01
  -0.3701265977240965E-32
   0.1003718560690300E+01
  -0.5517762577249422E-32
   0.1004319243050095E+01
  -0.5867641072245531E-32
   0.1004462563053635E+01
  -0.6191704721200147E-32
   0.1003629396201455E+01
  -0.5732793448722463E-32
   0.1064485256943289E+01
  -0.6168873399715376E-32
   0.1028442061791422E+01
   0.2142382206633540E-32
   0.1009605873443022E+01
  -0.3222380024970690E-32
   0.1006626987280982E+01
  -0.3720443538453114E-32
   0.1163967546369368E+01
  -0.4691744719494336E-31
   0.1086026686825260E+01
  -0.2900713345398885E-32
   0.1007907087196259E+01
  -0.3542416096967374E-32
   0.1007251825931231E+01
  -0.3822307412584738E-32
   0.1006796456310861E+01
  -0.3647498292076835E-32
   0.1013053883289097E+01
  -0.2669903694437188E-32
   0.1019340792085688E+01
   0.3038530399068624E-32
   0.1235123173300164E+01
  -0.1137411829119852E-30
   0.1032535565195805E+01
   0.5374152027536232E-32
   0.1046565480924824E+01
   0.8897350353749129E-32
   0.1201701822071614E+01
  -0.2041248022679093E-31
   0.1014672138147956E+01
  -0.2586216326639593E-32
   0.1032297498313804E+01
   0.4148531531132668E-32
   0.1028222183346705E+01
   0.3282075228784699E-32
   0.1014640520413415E+01
  -0.1077374381967734E-32
   0.1028986927004093E+01
  -0.6003582861999809E-33
   0.1002003667376940E+01
  -0.2310346694513312E-32
   0.9608147831754100E+00
  -0.4501963335618138E-31
   0.1006858072240647E+01
  -0.3902831541977456E-32
   0.1001324898688139E+01
  -0.6150470390328382E-32
   0.1010798261835512E+01
  -0.1808667042999841E-32
   0.1012231336357129E+01
  -0.4506438074191088E-32
   0.1000939569587860E+01
  -0.4606092900758681E-32
   0.9979357843570893E+00
  -0.4919484591015380E-32
   0.9980690509252457E+00
  -0.4007942367551116E-32
   0.1001192040825006E+01
  -0.4325793868174328E-32
   0.9842100790603717E+00
  -0.2063385646410559E-31
   0.9815228436233316E+00
  -0.1482315510156905E-31
   0.9648740509601008E+00
  -0.4544621324384658E-31
   0.9680944437965673E+00
  -0.4916616528979505E-31
   0.9914084286494738E+00
  -0.1964540597349388E-31
   0.9910913083080685E+00
  -0.6075834793537066E-32
   0.9925587124684977E+00
  -0.5687696675047328E-32
   0.1001727549517144E+01
  -0.3481299536381359E-32
   0.9993245747454996E+00
  -0.3737737103294170E-32
   0.9941434371456834E+00
  -0.5613620750813537E-32
   0.1006982475145262E+01
   0.4508119073565857E-33
   0.1022613019622865E+01
   0.5287019096683344E-32
   0.1001120639144830E+01
  -0.2122940714102607E-31
   0.1008783935587032E+01
  -0.3685080482438771E-32
   0.1004774772926836E+01
  -0.4072051168739362E-32
   0.1009030410936741E+01
  -0.2869757183481022E-32
   0.9967211493883110E+00
  -0.5974089337597578E-32
   0.1005570715447036E+01
  -0.2353997813938410E-32
   0.1003324760116646E+01
  -0.5026552653419655E-32
   0.9949845984930814E+00
  -0.3836814999492039E-32
   0.9833501663277937E+00
  -0.8756225038228811E-32
   0.9944494689300984E+00
  -0.5033882040520263E-32
   0.9973474193122841E+00
  -0.3733713156679191E-32
   0.9932503760517286E+00
  -0.5536561478347660E-32
   0.1001311884915560E+01
  -0.4117497238202056E-32
   0.1003000708380203E+01
  -0.4469764560993166E-32
   0.1002188291600079E+01
  -0.4060306561083051E-32
   0.9947120026425538E+00
  -0.3102673722622366E-32
   0.9937832198100177E+00
  -0.3583558022851201E-32
   0.1004861704671282E+01
  -0.4838299773537221E-32
   0.1020101282076271E+01
  -0.6998557013494400E-32
   0.1005337230004324E+01
  -0.1030188646229609E-31
   0.9817045977713877E+00
  -0.1686943168263697E-31
   0.1004974596064202E+01
  -0.4655042206615274E-32
   0.1012374662659213E+01
  -0.2246194952214345E-32
   0.9873720328834399E+00
  -0.2688580034365171E-31
   0.9551284413785771E+00
  -0.1184412016635869E-32
   0.9865253756937614E+00
  -0.1926656606952786E-31
   0.9865916534905511E+00
  -0.1248923021948671E-31
   0.9920067167821923E+00
  -0.4788190536090842E-31
   0.9934435620883300E+00
  -0.2361984996407382E-31
   0.9960682553901529E+00
  -0.5866037929896994E-31
   0.1037400105930398E+01
  -0.1613050105868607E-31
   0.1033161102226984E+01
  -0.7995237135767033E-32
   0.1001442942592532E+01
  -0.2749511719651547E-32
   0.1001928635181767E+01
  -0.4777727591514767E-32
   0.9912313107665974E+00
  -0.3043420283720729E-32
   0.9911145322921030E+00
  -0.8045922577403258E-32
   0.9649433996986477E+00
  -0.1821598904279016E-31
   0.9933790316910770E+00
  -0.4469841894339860E-32
   0.1006090796377595E+01
  -0.4566684193373942E-33
   0.1001963018644339E+01
  -0.1176964986731725E-32
   0.9908628976491073E+00
  -0.6794531746747570E-32
   0.9742169954693045E+00
  -0.1689458595502127E-31
   0.9420656172525655E+00
  -0.3347032174552767E-31
   0.9821543955093787E+00
  -0.2440251778316930E-31
   0.9794783302231292E+00
  -0.1144631612321631E-31
   0.9704368616004038E+00
  -0.1548709869706725E-31
   0.9720887189909958E+00
  -0.3528336204473535E-31
   0.9557898415179029E+00
  -0.1215020799357642E-31
   0.9498086706704917E+00
  -0.3122557759688767E-31
   0.9529904616760594E+00
  -0.4051517421730584E-31
   0.1002635788495719E+01
  -0.3554145241216799E-32
   0.1002475631461278E+01
  -0.4746864143665222E-32
   0.1000513073321971E+01
  -0.3039991093571819E-32
   0.1001674838585916E+01
  -0.1517752718063995E-32
   0.9610035232178611E+00
  -0.3574722343807815E-31
   0.9492443247450152E+00
  -0.6631866401166768E-31
   0.9586632960051235E+00
  -0.3154410850054850E-31
   0.1001121360681969E+01
  -0.4384674940577287E-32
   0.1000501199843334E+01
  -0.3466182300530751E-32
   0.1001159801553016E+01
  -0.2027848474546562E-32
   0.9807420384836284E+00
  -0.1683753325836677E-31
   0.9805568735462271E+00
  -0.2124757818799767E-31
   0.9629217552803773E+00
  -0.2912348122702135E-31
SCALARS u double 1
LOOKUP_TABLE default
   0.0000000000000000E+00
   0.0000000000000000E+00
   0.0000000000000000E+00
   0.0000000000000000E+00
   0.0000000000000000E+00
   0.0000000000000000E+00
   0.0000000000000000E+00
   0.0000000000000000E+00
   0.0000000000000000E+00
   0.0000000000000000E+00
   0.0000000000000000E+00
   0.0000000000000000E+00
   0.0000000000000000E+00
   0.0000000000000000E+00
   0.0000000000000000E+00
   0.0000000000000000E+00
   0.0000000000000000E+00
   0.0000000000000000E+00
   0.0000000000000000E+00
   0.0000000000000000E+00
   0.0000000000000000E+00
   0.0000000000000000E+00
   0.0000000000000000E+00
   0.0000000000000000E+00
   0.0000000000000000E+00
   0.0000000000000000E+00
   0.0000000000000000E+00
   0.0000000000000000E+00
   0.0000000000000000E+00
   0.0000000000000000E+00
   0.0000000000000000E+00
   0.0000000000000000E+00
   0.0000000000000000E+00
   0.0000000000000000E+00
   0.0000000000000000E+00
   0.0000000000000000E+00
   0.0000000000000000E+00
   0.0000000000000000E+00
   0.0000000000000000E+00
   0.0000000000000000E+00
   0.0000000000000000E+00
   0.0000000000000000E+00
   0.0000000000000000E+00
   0.0000000000000000E+00
   0.0000000000000000E+00
   0.0000000000000000E+00
   0.0000000000000000E+00
   0.0000000000000000E+00
   0.0000000000000000E+00
   0.0000000000000000E+00
   0.0000000000000000E+00
   0.0000000000000000E+00
   0.0000000000000000E+00
   0.0000000000000000E+00
   0.0000000000000000E+00
   0.0000000000000000E+00
   0.0000000000000000E+00
   0.0000000000000000E+00
   0.0000000000000000E+00
   0.0000000000000000E+00
   0.0000000000000000E+00
   0.0000000000000000E+00
   0.0000000000000000E+00
   0.0000000000000000E+00
   0.0000000000000000E+00
   0.0000000000000000E+00
   0.4945973674767948E+00
  -0.2504829079261873E-31
   0.5336248050875219E+00
  -0.9236851873844414E-32
   0.5182740404312992E+00
  -0.3131483351746714E-32
   0.4930714246880084E+00
  -0.7165185840228343E-34
   0.4847754205543366E+00
   0.8344630994459651E-32
   0.4868132653594701E+00
   0.1285698878838907E-31
   0.4891430744151772E+00
   0.1140475661682162E-31
   0.4958009013839229E+00
   0.1942068275795326E-32
   0.4899007394794597E+00
   0.6904916742793438E-32
   0.4718072596291301E+00
   0.2271037102151191E-33
   0.4448872821928465E+00
  -0.4956103600035001E-32
   0.4844369958667208E+00
   0.5356577076988994E-31
   0.5097703332359023E+00
  -0.6426184686727591E-33
   0.4401859475640688E+00
   0.9160613261688331E-31
   0.4949587097101337E+00
   0.5818838794988676E-32
   0.5223003573134866E+00
  -0.5215053772854864E-32
   0.4962747030690385E+00
   0.2729569538863768E-32
   0.5223832221928268E+00
  -0.1083581749002994E-31
   0.5038168244516879E+00
   0.3053100935254849E-32
   0.5644336963770774E+00
  -0.3176430884536320E-32
   0.5245894641611991E+00
  -0.3418080985356099E-32
   0.4990985097357280E+00
   0.3634257945801354E-32
   0.5729201586822474E+00
   0.1632419745433954E-31
   0.5693592828396806E+00
  -0.6388169819159940E-33
   0.3752192377712618E+00
   0.9373934440251965E-31
   0.4003638956327585E+00
   0.6331490656814283E-31
   0.5599389981230897E+00
   0.3108858726120916E-31
   0.5562259013996705E+00
  -0.1472839218397619E-32
   0.4942640825753432E+00
  -0.1222787926661062E-32
   0.4948651959554861E+00
  -0.2349173613769377E-32
   0.4925619071547847E+00
  -0.3794230702608347E-32
   0.4913967782792385E+00
  -0.2316317143066150E-32
   0.5162597182149176E+00
  -0.6606831218092398E-33
   0.5363670730386896E+00
   0.5455266664240897E-32
   0.4951374106273505E+00
  -0.4948570837842943E-32
   0.4520512889633680E+00
  -0.3405761247676279E-31
   0.5129007652531533E+00
  -0.1329507124693975E-32
   0.5117699763037181E+00
  -0.2587057137174733E-32
   0.4786317418801208E+00
  -0.1180539007150578E-31
   0.4931122297884138E+00
  -0.3456660397636007E-31
   0.4600270411967105E+00
  -0.7818836395183370E-31
   0.5242595707567018E+00
  -0.2535997467981233E-31
   0.5299947205809792E+00
  -0.3418880615742503E-32
   0.5129700677403226E+00
  -0.4540292747435607E-32
   0.5328928660726454E+00
   0.1345097593035042E-32
   0.5309782654313311E+00
   0.3326784773398485E-32
   0.5309767611235442E+00
  -0.2767224416322113E-32
   0.5063651340366084E+00
  -0.4150532114942523E-32
   0.5279536186072742E+00
  -0.1519666646171888E-31
   0.5409238855116125E+00
  -0.4821857891168061E-32
   0.5363719066838816E+00
  -0.1521202300595425E-31
   0.5374201319911395E+00
  -0.6352637617218057E-32
   0.4965358979054897E+00
   0.7786763385033032E-33
   0.4975364856842782E+00
   0.6560542442769350E-33
   0.4963815197018228E+00
   0.2131812771064924E-32
   0.4955155009765754E+00
   0.1995631043319150E-32
   0.4904172548398097E+00
   0.9747507052186883E-32
   0.4902500217898291E+00
   0.1083628040165515E-31
   0.4861611309741392E+00
   0.5924017230485652E-32
   0.4854067565176567E+00
   0.5624927349859627E-32
   0.4931955989628183E+00
   0.7482049820428877E-32
   0.4910329667983231E+00
   0.9829446099908471E-32
   0.4831677513903444E+00
   0.2548206489803207E-32
   0.4872468807575380E+00
   0.3596782869125773E-32
   0.4880024275320796E+00
   0.3472703170217751E-32
   0.4872312393726334E+00
   0.8902589448887590E-32
   0.4882163845946387E+00
   0.1067925978537719E-31
   0.4952576817142507E+00
   0.6042559221295733E-32
   0.4900721164451881E+00
   0.1213855370560844E-31
   0.4903599279027019E+00
   0.1135215446742821E-31
   0.4944353026139121E+00
   0.8087373002933593E-32
   0.4868191759059434E+00
   0.1037965008779465E-31
   0.4892735512385840E+00
   0.1174742193227789E-31
   0.4881467931142965E+00
   0.1259425501874673E-31
   0.4878252396597957E+00
   0.1050169723223840E-31
   0.4449106779690963E+00
  -0.4106865307367621E-32
   0.4700132875190225E+00
  -0.1581891958948756E-32
   0.4891774917432155E+00
   0.3421855541732234E-32
   0.4885974634697415E+00
   0.8942147624764179E-32
   0.4510294628190460E+00
   0.3546074982210564E-31
   0.4681803399683453E+00
  -0.1277131498622552E-31
   0.4876666907085663E+00
   0.5616064950215878E-32
   0.4868262750044940E+00
   0.8284803557964695E-32
   0.4909268404056524E+00
   0.6382839332080105E-32
   0.4793945543406269E+00
   0.6164714062189495E-32
   0.4657906777233793E+00
  -0.3733537053528610E-32
   0.3794391075056604E+00
   0.3591395939877112E-31
   0.4903637343750605E+00
  -0.4087918847176635E-31
   0.4487969161842082E+00
  -0.1380697372358035E-31
   0.4432386725405791E+00
   0.1236230122717976E-31
   0.4845716407405631E+00
   0.3620966542860087E-32
   0.4621867851018978E+00
  -0.6554410349645623E-32
   0.4663606659170697E+00
  -0.3098489760423315E-31
   0.4747787029525906E+00
   0.2523104967736784E-32
   0.4893811124123311E+00
   0.5096341490523837E-31
   0.5085638677103052E+00
  -0.3638396830544937E-33
   0.4305372591468954E+00
   0.4073420041624961E-31
   0.4927298036564187E+00
   0.4985705811298234E-32
   0.5320327256146417E+00
  -0.5116825066380232E-32
   0.4913855406342724E+00
   0.9644275245994027E-33
   0.5209473688282712E+00
  -0.2235583219542056E-32
   0.5061309364989554E+00
   0.1672406305312191E-32
   0.5690650993933956E+00
   0.1122597435057134E-31
   0.5274990552114490E+00
   0.4059359904932423E-33
   0.5015024129687965E+00
   0.3365585956461023E-32
   0.5821782454567764E+00
   0.3581008175950978E-31
   0.5691769250145491E+00
   0.1983272898970208E-31
   0.3403300368266642E+00
   0.1004088411506440E-30
   0.3786151439647796E+00
  -0.1186138840718552E-31
   0.5753346481671195E+00
   0.5551210738311096E-31
   0.5668543263579127E+00
   0.9988071579697507E-32
   0.5703059562479934E+00
  -0.4924338366236298E-32
   0.5291879205874385E+00
  -0.8599422888625159E-32
   0.5449837175701030E+00
  -0.1358203265406539E-31
   0.5719102639537443E+00
   0.7506933505276884E-32
   0.5385667386689269E+00
  -0.2199660888557573E-31
   0.5475905556159546E+00
   0.2252602992761427E-31
   0.5821515963347279E+00
   0.3436940407190052E-31
   0.4925318968476779E+00
  -0.6088728987865738E-32
   0.5041571115759980E+00
   0.1075816377099679E-32
   0.4961293264962584E+00
  -0.2294776464030774E-32
   0.5562736233240730E+00
   0.4200941391990758E-32
   0.4757837005625997E+00
  -0.3959292138859738E-31
   0.4950183184475574E+00
   0.6361811868330608E-32
   0.5496188055711835E+00
  -0.7029316362359767E-32
   0.5889517159187643E+00
   0.2028614309674845E-31
   0.5839552612578092E+00
   0.1370331233056527E-32
   0.5468175663399408E+00
  -0.4319130799064410E-32
   0.5803880219184332E+00
   0.9789054786326964E-33
   0.5106065646435219E+00
  -0.1881478929895953E-32
   0.5029552652907820E+00
   0.7252677852085006E-33
   0.5033112976585404E+00
   0.1002295116035517E-32
   0.5676222186332067E+00
   0.1966978290968294E-32
   0.5564619505153856E+00
  -0.1970106762424245E-32
   0.4947144959246114E+00
   0.2845423810933523E-32
   0.5506785365866272E+00
  -0.1676775481032282E-31
   0.5513581031247722E+00