title="tecplot geometry and solution file"
variables = x y z rho u v w p mach temperature
zone t="boundary 1 bc-1", solutiontime= 0.2000000E+02, strandid=1001, i=32, j=46, f=feblock
 -0.547468544169E-02 -0.157917431695E-17 -0.567606031243E-02 -0.157917431695E-17 -0.157917431695E-17 -0.157917431695E-17 -0.525159244851E-02
 -0.425776897977E-02 -0.157917431695E-17 -0.157917431695E-17 -0.157917431695E-17 -0.157917431695E-17 -0.157917431695E-17 -0.157917431695E-17
 -0.157917431695E-17 -0.157917431695E-17 -0.338395986572E-02 -0.157917431695E-17 -0.157917431695E-17 -0.157917431695E-17 -0.157917431695E-17
 -0.157917431695E-17 -0.157917431695E-17 -0.157917431695E-17 -0.157917431695E-17 -0.157917431695E-17 -0.157917431695E-17 -0.157917431695E-17
 -0.157917431695E-17 -0.157917431695E-17 -0.157917431695E-17 -0.157917431695E-17
  0.250494197117E+01  0.250494197117E+01  0.127822156907E+01  0.146289271009E+01  0.157686156160E+01  0.308372018325E+00  0.261948602442E-01
 -0.122573481164E+01 -0.600232012419E+00  0.250494197117E+01  0.477386199275E+00  0.742988685424E+00 -0.739814786992E+00  0.177790177481E+01
  0.155830813274E+01  0.250494197117E+01 -0.249658903664E+01 -0.154800130438E+01 -0.487811078581E+00  0.250494197117E+01  0.627766083140E+00
 -0.345533899378E+00 -0.178862290564E+01 -0.158811787973E+01  0.125000000000E+01 -0.249658903664E+01 -0.144524380962E+01 -0.157917431695E-17
 -0.125000000000E+01 -0.249658903664E+01 -0.249658903664E+01 -0.249658903664E+01
  0.803813859867E-04  0.125000000000E+01  0.822460170215E-04  0.103724302461E+01  0.219251206392E+01  0.922061490191E+00  0.103872438719E-03
  0.341545874230E-04  0.715990576545E+00  0.250000000000E+01  0.202479342020E+01  0.324151231464E+01  0.175434191980E+01  0.310152362409E+01
  0.404200324774E+01  0.375000000000E+01  0.810725962649E-04  0.930412228790E+00  0.299062775774E+01  0.500000000000E+01  0.429310310915E+01
  0.409252726285E+01  0.187029682677E+01  0.284428995242E+01  0.500000000000E+01  0.125000000000E+01  0.394624082883E+01  0.500000000000E+01
  0.500000000000E+01  0.250000000000E+01  0.375000000000E+01  0.500000000000E+01
  0.134610411272E+01  0.106373895315E+01  0.142661307307E+01  0.108602757112E+01  0.103228161501E+01  0.120168942948E+01  0.164672027410E+01
  0.149541228524E+01  0.123511653739E+01  0.102385860714E+01  0.102820716180E+01  0.101304355305E+01  0.103253130538E+01  0.101466427144E+01
  0.100661846289E+01  0.100825279919E+01  0.144847623524E+01  0.116394809495E+01  0.101462672507E+01  0.100424861003E+01  0.100678793396E+01
  0.100723538599E+01  0.104654783798E+01  0.101932575938E+01  0.100423402469E+01  0.106447850126E+01  0.100788916000E+01  0.100286720922E+01
  0.100333199446E+01  0.102843174142E+01  0.100958971290E+01  0.100399165360E+01
  0.000000000000E+00  0.444907566155E+00  0.000000000000E+00  0.468165238992E+00  0.462219788923E+00  0.443255781824E+00  0.000000000000E+00
  0.000000000000E+00  0.379448032399E+00  0.471820157666E+00  0.466385052975E+00  0.479407480675E+00  0.490365983621E+00  0.484580863725E+00
  0.488580617401E+00  0.489903947821E+00  0.000000000000E+00  0.451057720192E+00  0.474795742389E+00  0.495854291502E+00  0.490934585970E+00
  0.486828835945E+00  0.448814584615E+00  0.465812793939E+00  0.496552697395E+00  0.444917874829E+00  0.487673379142E+00  0.497548898535E+00
  0.496389779168E+00  0.470023814821E+00  0.489191809191E+00  0.495532917316E+00
  0.000000000000E+00  0.000000000000E+00  0.000000000000E+00  0.182116061523E-01 -0.276740026819E-02  0.330017171014E-01  0.000000000000E+00
  0.000000000000E+00 -0.636166202113E-02  0.000000000000E+00  0.362669895318E-02 -0.562407934215E-02 -0.433199032391E-02  0.406109523279E-04
 -0.103614484422E-02  0.000000000000E+00  0.000000000000E+00 -0.779393544860E-02  0.382826336294E-03  0.000000000000E+00 -0.203660997520E-02
 -0.138612505124E-02  0.151675929986E-02 -0.162873681163E-02 -0.690662014544E-04  0.000000000000E+00 -0.291032779299E-04 -0.201906371029E-03
  0.816925688638E-03  0.000000000000E+00  0.000000000000E+00  0.000000000000E+00
  0.000000000000E+00  0.453373803368E-01  0.000000000000E+00  0.123641155703E+00  0.245721576509E-01  0.166121694864E+00  0.000000000000E+00
  0.000000000000E+00  0.155961323867E+00  0.352436364669E-02  0.259093122441E-01 -0.648170519276E-02  0.752741556711E-01  0.370928848046E-02
 -0.139725720411E-03  0.461751377192E-03  0.000000000000E+00  0.141091568661E+00 -0.807317591916E-02  0.233585141555E-02 -0.292932911166E-03
 -0.438387519298E-02  0.256686803950E-01 -0.190138316056E-02  0.305256814750E-02  0.838531947913E-01 -0.120819235155E-02  0.269071200289E-02
  0.265767144208E-02  0.282332560137E-02 -0.850554584282E-03  0.345391392322E-02
  0.961493611430E+00  0.782479135488E+00  0.101899992492E+01  0.808625422234E+00  0.746100040773E+00  0.879950415902E+00  0.117621867582E+01
  0.106814326983E+01  0.916475528180E+00  0.737362551020E+00  0.743638068605E+00  0.725781891747E+00  0.757469118876E+00  0.729134459565E+00
  0.720762911574E+00  0.722734710874E+00  0.103461835457E+01  0.858081924021E+00  0.728059880416E+00  0.718594863480E+00  0.720998653408E+00
  0.721138849603E+00  0.759919730553E+00  0.732604156619E+00  0.718512428469E+00  0.790938751661E+00  0.722101222485E+00  0.717180444998E+00
  0.717628097825E+00  0.741761017132E+00  0.724056132113E+00  0.718399979864E+00
  0.000000000000E+00  0.440686956451E+00  0.000000000000E+00  0.474601860291E+00  0.460156605323E+00  0.468651269469E+00  0.000000000000E+00
  0.000000000000E+00  0.402559334833E+00  0.469898483685E+00  0.464218374019E+00  0.478763849559E+00  0.489552809916E+00  0.483139269757E+00
  0.487988335287E+00  0.489037740113E+00  0.000000000000E+00  0.465264654639E+00  0.473778457828E+00  0.495419894577E+00  0.490303732683E+00
  0.486281430533E+00  0.445872014982E+00  0.464382107352E+00  0.496146419486E+00  0.443907226126E+00  0.486938049724E+00  0.497262413622E+00
  0.496064603003E+00  0.467756049930E+00  0.488204924460E+00  0.495109131225E+00
  0.999990300362E+00  0.102983047338E+01  0.999990762612E+00  0.104240041526E+01  0.101187509483E+01  0.102516553116E+01  0.999991420552E+00
  0.999992171067E+00  0.103882160154E+01  0.100825208113E+01  0.101253262448E+01  0.100301181068E+01  0.102704563135E+01  0.100603546623E+01
  0.100243350724E+01  0.100354652725E+01  0.999992724186E+00  0.103210332045E+01  0.100458997127E+01  0.100177665055E+01  0.100259258254E+01
  0.100234205776E+01  0.101656855441E+01  0.100620023562E+01  0.100167627777E+01  0.104024106735E+01  0.100302865791E+01  0.100118202466E+01
  0.100134286806E+01  0.100975629413E+01  0.100405003340E+01  0.100176128776E+01
        12        19        11        11
        11         5        12        12
        10        14         5         5
        19        13        11        11
        19        24        13        13
        30        23        24        24
        19        12        22        22
        28        22        21        21
        11        13         6         6
         7         6         9         9
        15        12        14        14
        18        13        23        23
        15        25        21        21
        27        19        22        22
        18         8         9         9
        27        31        24        24
         4        11         6         6
         5        14        12        12
         4         2         5         5
        21        12        15        15
        14        16        15        15
        24        19        27        27
        22        29        27        27
        23        26        18        18
        17         8        18        18
         5        11         4         4
         6         3         4         4
        26        23        30        30
         5         2        10        10
        16        14        10        10
         3         6         7         7
        21        25        28        28
        29        22        28        28
         6        13         9         9
         2         4         1         1
        31        27        32        32
        25        15        20        20
        24        23        13        13
         8         7         9         9
        13        18         9         9
        31        30        24        24
        12        21        22        22
        29        32        27        27
         3         1         4         4
        26        17        18        18
        16        20        15        15
zone t="boundary 2 bc-2", solutiontime= 0.2000000E+02, strandid=1002, i=33, j=48, f=feblock
  0.500195253374E+01  0.375034811161E+01  0.249861146299E+01  0.288036674177E+01  0.124717526933E+01  0.190856698521E+01  0.326577190273E+01
  0.201394856120E+01 -0.338395986572E-02  0.962374249381E+00  0.500000000000E+01  0.403430190008E+01  0.423029563807E+01  0.500000000000E+01
  0.385439188940E+01  0.500000000000E+01  0.398133433176E+01  0.315200081417E+01  0.266958028869E+01  0.154798029824E+01  0.218327860466E+01
  0.893688440338E+00 -0.157917431695E-17  0.699009761768E+00  0.964460899052E+00  0.310303671659E+01 -0.157917431695E-17 -0.157917431695E-17
  0.125000000000E+01  0.500000000000E+01  0.375000000000E+01  0.250000000000E+01 -0.157917431695E-17
 -0.249658903664E+01 -0.249658903664E+01 -0.249658903664E+01 -0.249658903664E+01 -0.249658903664E+01 -0.249658903664E+01 -0.249658903664E+01
 -0.249658903664E+01 -0.249658903664E+01 -0.249658903664E+01 -0.249658903664E+01 -0.249658903664E+01 -0.249658903664E+01 -0.249658903664E+01
 -0.249658903664E+01 -0.249658903664E+01 -0.249658903664E+01 -0.249658903664E+01 -0.249658903664E+01 -0.249658903664E+01 -0.249658903664E+01
 -0.249658903664E+01 -0.249658903664E+01 -0.249658903664E+01 -0.249658903664E+01 -0.249658903664E+01 -0.249658903664E+01 -0.249658903664E+01
 -0.249658903664E+01 -0.249658903664E+01 -0.249658903664E+01 -0.249658903664E+01 -0.249658903664E+01
  0.108225889030E-03  0.145875369682E-03  0.100893326425E-03  0.901663374396E+00  0.110858761917E-03  0.714928318829E+00  0.188140648011E+01
  0.175892165504E+01  0.810725962649E-04  0.957504300331E+00  0.125000000000E+01  0.100596698996E+01  0.191313519089E+01  0.250000000000E+01
  0.292898096716E+01  0.375000000000E+01  0.406883369524E+01  0.363389289944E+01  0.284756860985E+01  0.292582308120E+01  0.395754054931E+01
  0.205027256979E+01  0.125000000000E+01  0.306703272692E+01  0.397155766662E+01  0.433068622168E+01  0.250000000000E+01  0.375000000000E+01
  0.500000000000E+01  0.500000000000E+01  0.500000000000E+01  0.500000000000E+01  0.500000000000E+01
  0.831041357525E+00  0.935348918630E+00  0.934365044146E+00  0.968084000107E+00  0.961603856299E+00  0.964872836011E+00  0.984181273132E+00
  0.991405193921E+00  0.144847623524E+01  0.102897890450E+01  0.956084447875E+00  0.960824385750E+00  0.981496186205E+00  0.100649975159E+01
  0.997928240687E+00  0.100983389213E+01  0.100199653376E+01  0.998061493232E+00  0.991078398532E+00  0.100130783759E+01  0.100092801763E+01
  0.101222170628E+01  0.106447850126E+01  0.101078343063E+01  0.100684495694E+01  0.100117654835E+01  0.102843174142E+01  0.100958971290E+01
  0.100510103903E+01  0.100173025546E+01  0.100263749223E+01  0.100321220770E+01  0.100399165360E+01
  0.000000000000E+00  0.000000000000E+00  0.000000000000E+00  0.378594296190E+00  0.000000000000E+00  0.340338418687E+00  0.582142006766E+00
  0.575333105653E+00  0.000000000000E+00  0.489396345537E+00  0.495116773466E+00  0.430516876452E+00  0.569146176446E+00  0.536366159244E+00
  0.569120321355E+00  0.516318912797E+00  0.508668581256E+00  0.527583902115E+00  0.566869738818E+00  0.532048541845E+00  0.506201836953E+00
  0.520958078439E+00  0.444917874829E+00  0.491395348287E+00  0.492743730899E+00  0.501554554853E+00  0.470023814821E+00  0.489191809191E+00
  0.490411145287E+00  0.491356372992E+00  0.485989315288E+00  0.490194952922E+00  0.495532917316E+00
  0.000000000000E+00  0.000000000000E+00  0.000000000000E+00  0.000000000000E+00  0.000000000000E+00  0.000000000000E+00  0.000000000000E+00
  0.000000000000E+00  0.000000000000E+00  0.000000000000E+00  0.000000000000E+00  0.000000000000E+00  0.000000000000E+00  0.000000000000E+00
  0.000000000000E+00  0.000000000000E+00  0.000000000000E+00  0.000000000000E+00  0.000000000000E+00  0.000000000000E+00  0.000000000000E+00
  0.000000000000E+00  0.000000000000E+00  0.000000000000E+00  0.000000000000E+00  0.000000000000E+00  0.000000000000E+00  0.000000000000E+00
  0.000000000000E+00  0.000000000000E+00  0.000000000000E+00  0.000000000000E+00  0.000000000000E+00
  0.000000000000E+00  0.000000000000E+00  0.000000000000E+00 -0.231876964997E-02  0.000000000000E+00  0.182430247744E-01  0.121481784144E-01
  0.454146335737E-01  0.000000000000E+00  0.867503257376E-01 -0.992647488051E-01 -0.210331506649E-01 -0.304851777848E-01 -0.412936815494E-01
 -0.133097555666E-02  0.271652751876E-02  0.620332806474E-03  0.530789242301E-03  0.151482129252E-01  0.284353312646E-01  0.565479497687E-02
  0.553963135334E-01  0.838531947913E-01  0.110678904120E-01  0.680750660608E-02 -0.768045232526E-03  0.282332560137E-02 -0.850554584282E-03
  0.399029085831E-02  0.610297225872E-02 -0.134679127788E-03  0.119994792113E-02  0.345391392322E-02
  0.593597104419E+00  0.668102155328E+00  0.667399294365E+00  0.684281521004E+00  0.686855184848E+00  0.679247651574E+00  0.695852013930E+00
  0.702279973963E+00  0.103461835457E+01  0.723383467247E+00  0.672769954240E+00  0.675858618716E+00  0.694112661328E+00  0.721034478844E+00
  0.712702749309E+00  0.724826951887E+00  0.716589940504E+00  0.713298986111E+00  0.706418127938E+00  0.717728868610E+00  0.715366569166E+00
  0.730895733465E+00  0.790938751661E+00  0.724351366094E+00  0.721003661718E+00  0.715449047060E+00  0.741761017132E+00  0.724056132113E+00
  0.719312503244E+00  0.715843045911E+00  0.716591073668E+00  0.717373796587E+00  0.718399979864E+00
  0.000000000000E+00  0.000000000000E+00  0.000000000000E+00  0.380589944312E+00  0.000000000000E+00  0.343313552107E+00  0.585246152125E+00
  0.579528276646E+00  0.000000000000E+00  0.500995294698E+00  0.508763433336E+00  0.434348101113E+00  0.572810845363E+00  0.537167132628E+00
  0.569163055693E+00  0.515071868716E+00  0.508357194918E+00  0.527436990079E+00  0.567671840948E+00  0.531875772191E+00  0.506085504453E+00
  0.521063226799E+00  0.443907226126E+00  0.490717527006E+00  0.492165420172E+00  0.501441933564E+00  0.467756049930E+00  0.488204924460E+00
  0.489955622406E+00  0.491283935285E+00  0.485846404665E+00  0.489925188393E+00  0.495109131225E+00
  0.999993488485E+00  0.999993690942E+00  0.999993544242E+00  0.989577484289E+00  0.999993139053E+00  0.985566881678E+00  0.989851002145E+00
  0.991715566527E+00  0.999992724186E+00  0.984215370900E+00  0.985140944432E+00  0.984781485812E+00  0.990077943774E+00  0.100292947792E+01
  0.999855308581E+00  0.100487589152E+01  0.100122693333E+01  0.100055816934E+01  0.997888139402E+00  0.100350799058E+01  0.100058463665E+01
  0.101089911480E+01  0.104024106735E+01  0.100327318573E+01  0.100254276435E+01  0.100045158622E+01  0.100975629413E+01  0.100405003340E+01
  0.100192663766E+01  0.100044923153E+01  0.100058845885E+01  0.100110754984E+01  0.100176128776E+01
        15         7        19        19
         8        20        19        19
        18        19        21        21
         7         4         8         8
         3         6         4         4
        19         7         8         8
        19        18        15        15
        14        13        15        15
         8        22        20        20
        27        24        22        22
        19        20        21        21
        32        26        21        21
        17        18        26        26
        17        16        15        15
        25        29        21        21
        12         7        13        13
        10         8         6         6
        25        20        24        24
         4         6         8         8
        12         2         4         4
        10        23        22        22
        26        31        17        17
        30        16        17        17
         4         7        12        12
        13        11        12        12
        21        20        25        25
        24        28        25        25
        22         8        10        10
         6         5        10        10
        31        26        32        32
         4         2         3         3
         5         6         3         3
        11        13        14        14
        22        23        27        27
        28        24        27        27
        15        13         7         7
         2        12         1         1
        29        25        33        33
        23        10         9         9
        21        26        18        18
        16        14        15        15
        18        17        15        15
        29        32        21        21
        22        24        20        20
        28        33        25        25
        11         1        12        12
        31        30        17        17
         5         9        10        10
zone t="boundary 3 bc-3", solutiontime= 0.2000000E+02, strandid=1003, i=33, j=48, f=feblock
  0.375059096892E+01  0.249769609313E+01  0.500322133174E+01  0.403612218725E+01  0.287976772365E+01  0.124541910518E+01  0.190552237404E+01
  0.500000000000E+01  0.326671104552E+01  0.423253755448E+01  0.201271136506E+01 -0.547468544169E-02  0.958895643487E+00  0.500000000000E+01
  0.266968147299E+01  0.385584487271E+01  0.890374214836E+00  0.154654013699E+01 -0.157917431695E-17  0.500000000000E+01  0.315261136744E+01
  0.218304199515E+01  0.398195307895E+01 -0.157917431695E-17  0.697379952124E+00  0.963757277315E+00  0.125000000000E+01 -0.157917431695E-17
  0.500000000000E+01  0.310330738524E+01  0.250000000000E+01  0.375000000000E+01 -0.157917431695E-17
  0.250494197117E+01  0.250494197117E+01  0.250494197117E+01  0.250494197117E+01  0.250494197117E+01  0.250494197117E+01  0.250494197117E+01
  0.250494197117E+01  0.250494197117E+01  0.250494197117E+01  0.250494197117E+01  0.250494197117E+01  0.250494197117E+01  0.250494197117E+01
  0.250494197117E+01  0.250494197117E+01  0.250494197117E+01  0.250494197117E+01  0.250494197117E+01  0.250494197117E+01  0.250494197117E+01
  0.250494197117E+01  0.250494197117E+01  0.250494197117E+01  0.250494197117E+01  0.250494197117E+01  0.250494197117E+01  0.250494197117E+01
  0.250494197117E+01  0.250494197117E+01  0.250494197117E+01  0.250494197117E+01  0.250494197117E+01
  0.135649900494E-03  0.110129816467E-03  0.966887303890E-04  0.101756752009E+01  0.908094589218E+00  0.103942505801E-03  0.722629083213E+00
  0.125000000000E+01  0.188965661746E+01  0.191862696980E+01  0.176708239098E+01  0.803813859867E-04  0.969652551954E+00  0.250000000000E+01
  0.285339433501E+01  0.293325058812E+01  0.205656223819E+01  0.293157016932E+01  0.125000000000E+01  0.375000000000E+01  0.363766838842E+01
  0.396069444983E+01  0.407056385475E+01  0.250000000000E+01  0.307031995245E+01  0.397359820314E+01  0.500000000000E+01  0.375000000000E+01
  0.500000000000E+01  0.433260781310E+01  0.500000000000E+01  0.500000000000E+01  0.500000000000E+01
  0.942178667262E+00  0.946103829042E+00  0.843604633700E+00  0.964645809080E+00  0.979065919645E+00  0.957190349133E+00  0.983404267534E+00
  0.963737853274E+00  0.982786772543E+00  0.984379879907E+00  0.990461414112E+00  0.134610411272E+01  0.101938513380E+01  0.100836583794E+01
  0.993505153225E+00  0.998020947897E+00  0.100802066097E+01  0.100072468292E+01  0.106373895315E+01  0.100674617519E+01  0.100058930061E+01
  0.100234012581E+01  0.100176873455E+01  0.102385860714E+01  0.100867868297E+01  0.100524482851E+01  0.100520225417E+01  0.100825279919E+01
  0.100185255222E+01  0.100160365521E+01  0.100408182880E+01  0.100312281731E+01  0.100424861003E+01
  0.000000000000E+00  0.000000000000E+00  0.000000000000E+00  0.440134035756E+00  0.400304220913E+00  0.000000000000E+00  0.375206770225E+00
  0.494507304265E+00  0.572896291907E+00  0.569318239465E+00  0.559942317526E+00  0.000000000000E+00  0.484443243221E+00  0.533614015871E+00
  0.556267525451E+00  0.564509875169E+00  0.522402266551E+00  0.522323904597E+00  0.444907566155E+00  0.518328143725E+00  0.524681730373E+00
  0.503881576528E+00  0.509876068711E+00  0.471820157666E+00  0.496286649992E+00  0.494981780474E+00  0.489196113513E+00  0.489903947821E+00
  0.493009728043E+00  0.499180138264E+00  0.486781899020E+00  0.484553655466E+00  0.495854291502E+00
  0.000000000000E+00  0.000000000000E+00  0.000000000000E+00  0.000000000000E+00  0.000000000000E+00  0.000000000000E+00  0.000000000000E+00
  0.000000000000E+00  0.000000000000E+00  0.000000000000E+00  0.000000000000E+00  0.000000000000E+00  0.000000000000E+00  0.000000000000E+00
  0.000000000000E+00  0.000000000000E+00  0.000000000000E+00  0.000000000000E+00  0.000000000000E+00  0.000000000000E+00  0.000000000000E+00
  0.000000000000E+00  0.000000000000E+00  0.000000000000E+00  0.000000000000E+00  0.000000000000E+00  0.000000000000E+00  0.000000000000E+00
  0.000000000000E+00  0.000000000000E+00  0.000000000000E+00  0.000000000000E+00  0.000000000000E+00
  0.000000000000E+00  0.000000000000E+00  0.000000000000E+00 -0.226873100313E-01  0.112236311987E-01  0.000000000000E+00  0.181904190369E-01
 -0.100739469909E+00  0.385719574623E-02 -0.389661955333E-01  0.339725147845E-01  0.000000000000E+00  0.656390263384E-01 -0.424723801203E-01
  0.840184579961E-02 -0.653180964561E-02  0.487201555339E-01  0.134497671337E-01  0.453373803368E-01  0.774789868318E-03 -0.730859402477E-03
  0.238653858940E-02  0.895280720573E-03  0.352436364669E-02  0.103017835624E-01  0.426803155368E-02  0.333692692075E-02  0.461751377192E-03
  0.581660559472E-02  0.305403821570E-03  0.163281355658E-02  0.682139439351E-03  0.233585141555E-02
  0.672977592059E+00  0.675781296021E+00  0.602568491218E+00  0.676148848135E+00  0.691376702289E+00  0.683700440939E+00  0.689981054943E+00
  0.677403740748E+00  0.695255951193E+00  0.696318136748E+00  0.703500441199E+00  0.961493611430E+00  0.719930191316E+00  0.722890548115E+00
  0.709483359883E+00  0.713700400562E+00  0.725988724301E+00  0.716599007047E+00  0.782479135488E+00  0.722279325464E+00  0.716117424493E+00
  0.716530318772E+00  0.716531036951E+00  0.737362551020E+00  0.722623112014E+00  0.719398588154E+00  0.719541035177E+00  0.722734710874E+00
  0.715953404164E+00  0.715824078830E+00  0.718123681984E+00  0.717024367767E+00  0.718594863480E+00
  0.000000000000E+00  0.000000000000E+00  0.000000000000E+00  0.444897455579E+00  0.402759120404E+00  0.000000000000E+00  0.379021543774E+00
  0.508737919023E+00  0.575677334017E+00  0.573434010542E+00  0.562553360135E+00  0.000000000000E+00  0.491646777991E+00  0.534327253589E+00
  0.556394945622E+00  0.564219970990E+00  0.522506071381E+00  0.521841990520E+00  0.440686956451E+00  0.517188262448E+00  0.524165161658E+00
  0.503685681583E+00  0.509527364928E+00  0.469898483685E+00  0.495658567677E+00  0.494529806854E+00  0.488683895673E+00  0.489037740113E+00
  0.492925425819E+00  0.499043219601E+00  0.486471917967E+00  0.484382432317E+00  0.495419894577E+00
  0.999989345567E+00  0.999989414891E+00  0.999989632591E+00  0.981301508262E+00  0.988623302868E+00  0.999989832933E+00  0.982275050872E+00
  0.984048965001E+00  0.990406422699E+00  0.990314218469E+00  0.994385650612E+00  0.999990300362E+00  0.988735497923E+00  0.100365039085E+01
  0.999770057168E+00  0.100116191237E+01  0.100829700559E+01  0.100251210647E+01  0.102983047338E+01  0.100441509545E+01  0.100197393044E+01
  0.100080044732E+01  0.100137228996E+01  0.100825208113E+01  0.100296791624E+01  0.100190321288E+01  0.100214404123E+01  0.100354652725E+01
  0.100048132194E+01  0.100054917446E+01  0.100128607643E+01  0.100070908323E+01  0.100177665055E+01
        15         9        16        16
        15        18        11        11
        22        15        21        21
        11         5         9         9
         5         7         2         2
        11         9        15        15
        16        21        15        15
        16        10        14        14
        18        17        11        11
        17        25        24        24
        22        18        15        15
        22        30        31        31
        30        21        23        23
        16        20        23        23
        22        27        26        26
        10         9         4         4
         7        11        13        13
        25        18        26        26
        11         7         5         5
         5         1         4         4
        17        19        13        13
        23        32        30        30
        23        20        29        29
         4         9         5         5
         4         8        10        10
        26        18        22        22
        26        28        25        25
        13        11        17        17
        13         6         7         7
        31        30        32        32
         2         1         5         5
         2         7         6         6
        14        10         8         8
        24        19        17        17
        24        25        28        28
         9        10        16        16
         3         4         1         1
        33        26        27        27
        12        13        19        19
        21        30        22        22
        16        14        20        20
        16        23        21        21
        22        31        27        27
        18        25        17        17
        26        33        28        28
         4         3         8         8
        23        29        32        32
        13        12         6         6
zone t="boundary 4 bc-4", solutiontime= 0.2000000E+02, strandid=1004, i=32, j=46, f=feblock
  0.125000000000E+01  0.219251206392E+01  0.103724302461E+01  0.500000000000E+01  0.250000000000E+01  0.375000000000E+01  0.404200324774E+01
  0.500000000000E+01 -0.157917431695E-17  0.310152362409E+01  0.202479342020E+01  0.324151231464E+01  0.922061490191E+00 -0.157917431695E-17
  0.299062775774E+01  0.394624082883E+01  0.500000000000E+01  0.409252726285E+01  0.500000000000E+01  0.429310310915E+01  0.175434191980E+01
  0.284428995242E+01 -0.157917431695E-17 -0.157917431695E-17  0.715990576545E+00  0.930412228790E+00  0.125000000000E+01  0.187029682677E+01
  0.500000000000E+01  0.375000000000E+01  0.250000000000E+01 -0.157917431695E-17
  0.250494197117E+01  0.157686156160E+01  0.146289271009E+01  0.250494197117E+01  0.250494197117E+01  0.250494197117E+01  0.155830813274E+01
  0.125000000000E+01  0.250494197117E+01  0.177790177481E+01  0.477386199275E+00  0.742988685424E+00  0.308372018325E+00  0.125000000000E+01
 -0.487811078581E+00 -0.144524380962E+01 -0.125000000000E+01 -0.345533899378E+00 -0.157917431695E-17  0.627766083140E+00 -0.739814786992E+00
 -0.158811787973E+01 -0.157917431695E-17 -0.125000000000E+01 -0.600232012419E+00 -0.154800130438E+01 -0.249658903664E+01 -0.178862290564E+01
 -0.249658903664E+01 -0.249658903664E+01 -0.249658903664E+01 -0.249658903664E+01
  0.500000000000E+01  0.500000000000E+01  0.500000000000E+01  0.500000000000E+01  0.500000000000E+01  0.500000000000E+01  0.500000000000E+01
  0.500000000000E+01  0.500000000000E+01  0.500000000000E+01  0.500000000000E+01  0.500000000000E+01  0.500000000000E+01  0.500000000000E+01
  0.500000000000E+01  0.500000000000E+01  0.500000000000E+01  0.500000000000E+01  0.500000000000E+01  0.500000000000E+01  0.500000000000E+01
  0.500000000000E+01  0.500000000000E+01  0.500000000000E+01  0.500000000000E+01  0.500000000000E+01  0.500000000000E+01  0.500000000000E+01
  0.500000000000E+01  0.500000000000E+01  0.500000000000E+01  0.500000000000E+01
  0.100520225417E+01  0.100429354097E+01  0.100428282011E+01  0.100185255222E+01  0.100408182880E+01  0.100312281731E+01  0.100250274561E+01
  0.100192419019E+01  0.100424861003E+01  0.100365585499E+01  0.100444407915E+01  0.100343928843E+01  0.100364266176E+01  0.100423402469E+01
  0.100359783610E+01  0.100160981484E+01  0.100222833180E+01  0.100221766518E+01  0.100205692299E+01  0.100246836751E+01  0.100442323306E+01
  0.100337067192E+01  0.100286720922E+01  0.100333199446E+01  0.100322113064E+01  0.100405739698E+01  0.100510103903E+01  0.100431851070E+01
  0.100173025546E+01  0.100263749223E+01  0.100321220770E+01  0.100399165360E+01
  0.489196113513E+00  0.489268481266E+00  0.491057536186E+00  0.493009728043E+00  0.486781899020E+00  0.484553655466E+00  0.485193208761E+00
  0.494182271482E+00  0.495854291502E+00  0.486706106036E+00  0.488145661284E+00  0.487141839527E+00  0.494455567202E+00  0.496552697395E+00
  0.487744221157E+00  0.483034737083E+00  0.492497149093E+00  0.487102730422E+00  0.494804841308E+00  0.487837814773E+00  0.490069385442E+00
  0.488105806529E+00  0.497548898535E+00  0.496389779168E+00  0.495266209591E+00  0.493204084272E+00  0.490411145287E+00  0.490339485093E+00
  0.491356372992E+00  0.485989315288E+00  0.490194952922E+00  0.495532917316E+00
  0.000000000000E+00 -0.719584906332E-04 -0.128729391767E-02  0.000000000000E+00  0.000000000000E+00  0.000000000000E+00  0.515673597674E-03
  0.902274215880E-03  0.000000000000E+00  0.306946500370E-03 -0.895943822594E-03 -0.765007358764E-03 -0.173051566813E-02 -0.690662014544E-04
 -0.105905532201E-02 -0.101383387753E-02 -0.130347589815E-02 -0.210001837301E-02 -0.123846398322E-02 -0.984561862178E-03 -0.567303543368E-03
 -0.730489541373E-03 -0.201906371029E-03  0.816925688638E-03  0.739298642444E-04  0.164653750667E-02  0.000000000000E+00  0.816703645506E-03
  0.000000000000E+00  0.000000000000E+00  0.000000000000E+00  0.000000000000E+00