# vtk DataFile Version 2.0
FUN3D:global_image_vtk
ASCII
DATASET UNSTRUCTURED_GRID
POINTS 213 double
   -0.5474685441687832E-02    0.5000000000000001E-30    0.2504941971167291E+01
    0.1212121212121211E-30    0.8038138598670530E-04    0.5000000000000000E-30
    0.1245419105183472E+01    0.1000000000000000E-29    0.2504941971167291E+01
    0.1212121212121211E-30    0.1039425058013133E-03    0.1000000000000000E-29
    0.2497696093128780E+01    0.5000000000000000E-30    0.2504941971167291E+01
    0.1212121212121211E-30    0.1101298164665754E-03    0.5000000000000000E-30
    0.3750590968915824E+01    0.1000000000000000E-29    0.2504941971167291E+01
    0.1212121212121211E-30    0.1356499004943612E-03    0.1000000000000000E-29
    0.5003221331742151E+01    0.5000000000000000E-30    0.2504941971167291E+01
    0.1212121212121211E-30    0.9668873038898296E-04    0.5000000000000000E-30
    0.5004676687979097E+01    0.1000000000000000E-29    0.1281291202167040E+01
    0.4999999999999996E-30    0.1638053019384356E-03    0.1000000000000000E-29
    0.5004772673778115E+01    0.5000000000000000E-30    0.2775079906482894E-01
    0.9999999999999997E-30    0.1903478008447590E-03    0.5000000000000000E-30
    0.5003581183341212E+01    0.1000000000000000E-29   -0.1225853508883529E+01
    0.4999999999999997E-30    0.1607765204486578E-03    0.1000000000000000E-29
    0.5001952533742191E+01    0.5000000000000000E-30   -0.2496589036641631E+01
    0.1212121212121212E-30    0.1082258890302557E-03    0.5000000000000000E-30
    0.3750348111606544E+01    0.1000000000000000E-29   -0.2496589036641631E+01
    0.1212121212121212E-30    0.1458753696815807E-03    0.1000000000000000E-29
    0.2498611462994928E+01    0.5000000000000000E-30   -0.2496589036641631E+01
    0.1212121212121212E-30    0.1008933264248224E-03    0.5000000000000000E-30
    0.1247175269333276E+01    0.1000000000000000E-29   -0.2496589036641631E+01
    0.1212121212121212E-30    0.1108587619169654E-03    0.1000000000000000E-29
   -0.3383959865719266E-02    0.5000000000000001E-30   -0.2496589036641631E+01
    0.1212121212121212E-30    0.8107259626494168E-04    0.5000000000000000E-30
   -0.4257768979765597E-02    0.1000000000000000E-29   -0.1225734811642590E+01
    0.4999999999999997E-30    0.3415458742295208E-04    0.1000000000000000E-29
   -0.5251592448509257E-02    0.5000000000000001E-30    0.2619486024420453E-01
    0.9999999999999997E-30    0.1038724387187884E-03    0.5000000000000000E-30
   -0.5676060312426845E-02    0.1000000000000000E-29    0.1278221569065707E+01
    0.4999999999999996E-30    0.8224601702150336E-04    0.1000000000000000E-29
    0.9003209617952581E+00    0.5000000000000001E-30    0.1608979112280158E+01
    0.9999999999999997E-30    0.8704140727672227E-04    0.5000000000000000E-30
    0.3983172210692289E+01    0.1000000000000000E-29   -0.1561211904840279E+01
    0.4999999999999997E-30    0.1757116720370600E-03    0.1000000000000000E-29
    0.4035602039224469E+01    0.5000000000000000E-30    0.1486760030415520E+01
    0.9999999999999996E-30    0.1713312862106631E-03    0.5000000000000000E-30
    0.1036613723302902E+01    0.1000000000000000E-29   -0.1455626429916848E+01
    0.4999999999999997E-30    0.1047189301532914E-03    0.1000000000000000E-29
    0.1094353480630802E+01    0.5000000000000001E-30   -0.2964622010671852E+00
    0.9999999999999996E-30    0.1260590236917269E-03    0.5000000000000000E-30
    0.7298400267480001E+00    0.1000000000000000E-29    0.6874684746719117E+00
    0.4999999999999991E-30    0.1044598640544958E-03    0.1000000000000000E-29
    0.1617018659308944E+01    0.5000000000000001E-30    0.8553208024939369E+00
    0.9999999999999990E-30    0.1529810904974394E-03    0.5000000000000000E-30
    0.2143199662875790E+01    0.1000000000000000E-29   -0.1627128509216730E+01
    0.4999999999999997E-30    0.1606170425226816E-03    0.1000000000000000E-29
    0.4088840445400889E+01    0.5000000000000000E-30   -0.4351047825936264E+00
    0.9999999999999997E-30    0.2719933294109134E-03    0.5000000000000000E-30
    0.2977916511248925E+01    0.1000000000000000E-29   -0.8334991483094499E+00
    0.4999999999999991E-30    0.2245596931861327E-03    0.1000000000000000E-29
    0.3044093241383418E+01    0.5000000000000000E-30   -0.1814361225108581E+01
    0.9999999999999997E-30    0.1617000112420497E-03    0.5000000000000000E-30
    0.3427866614805211E+01    0.1000000000000000E-29    0.3813904839972497E+00
    0.4999999999999996E-30    0.2936955483429093E-03    0.1000000000000000E-29
    0.4313225355351749E+01    0.5000000000000000E-30    0.5489133376342497E+00
    0.9999999999999990E-30    0.2313009573592373E-03    0.5000000000000000E-30
    0.1823032737597358E+01    0.1000000000000000E-29    0.1771265193544254E+01
    0.4999999999999996E-30    0.1836202887151583E-03    0.1000000000000000E-29
    0.2806311152168375E+01    0.5000000000000000E-30    0.1358629373600680E+01
    0.9999999999999996E-30    0.1943492163983818E-03    0.5000000000000000E-30
    0.1891860875936711E+01    0.1000000000000000E-29   -0.8481310365607545E+00
    0.4999999999999991E-30    0.1670645501816170E-03    0.1000000000000000E-29
    0.2268769200166909E+01    0.5000000000000001E-30    0.7723691819196567E-01
    0.9999999999999997E-30    0.2072307783085314E-03    0.5000000000000000E-30
    0.5000000000000000E+01   -0.6158132886778928E-48    0.2504941971167291E+01
    0.1212121212121211E-30    0.1250000000000000E+01   -0.6158132886778928E-48
    0.5000000000000000E+01   -0.6158132886778928E-48    0.2504941971167291E+01
    0.1212121212121211E-30    0.2500000000000000E+01   -0.6158132886778928E-48
    0.5000000000000000E+01   -0.6158132886778928E-48    0.2504941971167291E+01
    0.1212121212121211E-30    0.3750000000000000E+01   -0.6158132886778928E-48
    0.5000000000000000E+01   -0.6158132886778928E-48    0.2504941971167291E+01
    0.1212121212121211E-30    0.5000000000000000E+01   -0.6158132886778928E-48
    0.3750000000000000E+01   -0.6158132886778928E-48    0.2504941971167291E+01
    0.1212121212121211E-30    0.5000000000000000E+01   -0.6158132886778928E-48
    0.2500000000000000E+01   -0.6158132886778928E-48    0.2504941971167291E+01
    0.1212121212121211E-30    0.5000000000000000E+01   -0.6158132886778928E-48
    0.1250000000000000E+01   -0.6158132886778928E-48    0.2504941971167291E+01
    0.1212121212121211E-30    0.5000000000000000E+01   -0.6158132886778928E-48
   -0.3479548013584519E-20   -0.6158132886778928E-48    0.2504941971167291E+01
    0.1212121212121211E-30    0.5000000000000000E+01   -0.6158132886778928E-48
   -0.3479548013584519E-20   -0.6158132886778928E-48    0.2504941971167291E+01
    0.1212121212121211E-30    0.3750000000000000E+01   -0.6158132886778928E-48
   -0.3479548013584519E-20   -0.6158132886778928E-48    0.2504941971167291E+01
    0.1212121212121211E-30    0.2500000000000000E+01   -0.6158132886778928E-48
   -0.3479548013584519E-20   -0.6158132886778928E-48    0.2504941971167291E+01
    0.1212121212121211E-30    0.1250000000000000E+01   -0.6158132886778928E-48
    0.9588956434871093E+00    0.4088323204879484E-30    0.2504941971167291E+01
    0.1212121212121211E-30    0.9696525519543873E+00    0.8253355966551717E-30
    0.3981953078951402E+01    0.7369699780760076E-31    0.2504941971167291E+01
    0.1212121212121211E-30    0.4070563854751271E+01    0.1516277355828638E-30
    0.4036122187252336E+01    0.5331184872987383E-30    0.2504941971167291E+01
    0.1212121212121211E-30    0.1017567520094671E+01    0.8139234257758011E-30
    0.9637572773153888E+00   -0.9331067766442809E-32    0.2504941971167291E+01
    0.1212121212121211E-30    0.3973598203142229E+01    0.1306014370159859E-30
    0.1546540136992396E+01    0.8002905657924131E-31    0.2504941971167291E+01
    0.1212121212121211E-30    0.2931570169315601E+01    0.3996885550961211E-30
    0.6973799521244313E+00    0.3481309068425623E-32    0.2504941971167291E+01
    0.1212121212121211E-30    0.3070319952453756E+01    0.2100037182687849E-30
    0.8903742148356885E+00    0.7712488796354892E-31    0.2504941971167291E+01
    0.1212121212121211E-30    0.2056562238187738E+01    0.4294668085393752E-30
    0.2183041995146012E+01    0.3782461580951065E-31    0.2504941971167291E+01
    0.1212121212121211E-30    0.3960694449828019E+01    0.2259705361712553E-30
    0.3855844872709870E+01    0.1784932175604527E-30    0.2504941971167291E+01
    0.1212121212121211E-30    0.2933250588118630E+01    0.3558534735535045E-30
    0.3152611367438029E+01    0.1115283363379682E-30    0.2504941971167291E+01
    0.1212121212121211E-30    0.3637668388416195E+01    0.2959845527154785E-30
    0.3103307385241870E+01    0.5185271477211363E-31    0.2504941971167291E+01
    0.1212121212121211E-30    0.4332607813099731E+01    0.1521436499776921E-30
    0.3266711045517939E+01    0.3601961362738234E-30    0.2504941971167291E+01
    0.1212121212121211E-30    0.1889656617463738E+01    0.6353768785672577E-30
    0.4232537554484796E+01    0.2580489315428139E-30    0.2504941971167291E+01
    0.1212121212121211E-30    0.1918626969802351E+01    0.4090791405808600E-30
    0.1905522374036519E+01    0.6572817491138507E-30    0.2504941971167291E+01
    0.1212121212121211E-30    0.7226290832134608E+00    0.8977306600900022E-30
    0.2879767723645805E+01    0.6107141644545625E-30    0.2504941971167291E+01
    0.1212121212121211E-30    0.9080945892181980E+00    0.8180347387425746E-30
    0.2012711365064515E+01    0.3615868018462215E-30    0.2504941971167291E+01
    0.1212121212121211E-30    0.1767082390977754E+01    0.7060364642884745E-30
    0.2669681472994637E+01    0.1849800474542280E-30    0.2504941971167291E+01
    0.1212121212121211E-30    0.2853394335010791E+01    0.4820509466868501E-30
    0.5000000000000000E+01   -0.6158132886778928E-48    0.1250000000000000E+01
   -0.6158132886778928E-48    0.5000000000000000E+01   -0.6158132886778928E-48
    0.5000000000000000E+01   -0.6158132886778928E-48   -0.3479548013584519E-20
[...]
POINT_DATA 213
SCALARS rho double 1
LOOKUP_TABLE default
   0.1346108072128818E+01
  -0.1177600340565523E-30
   0.9572034653813802E+00
   0.2108982686721272E-31
   0.9461166272861331E+00
  -0.8776922760323424E-31
   0.9421719196665749E+00
   0.2463349483477620E-31
   0.8436076021014960E+00
  -0.1732479402673285E-31
   0.7742018995080767E+00
   0.2325460876121253E-30
   0.7627577609718089E+00
   0.8548937768154659E-31
   0.7661550348611957E+00
   0.3222421500027642E-31
   0.8310486070629770E+00
  -0.1016785376088020E-30
   0.9353547071448350E+00
   0.3068790030849983E-31
   0.9343892029604375E+00
  -0.7551745894136443E-31
   0.9616161412070084E+00
  -0.8800673480001373E-32
   0.1448475026300456E+01
  -0.2080908301075142E-30
   0.1495420186695782E+01
  -0.7365290859284506E-30
   0.1646729283898872E+01
  -0.3640612437375102E-30
   0.1426611528373654E+01
  -0.5489168115723054E-30
   0.1009806797977181E+01
  -0.4443409213097578E-31
   0.9511447487847542E+00
  -0.2350050557691106E-31
   0.9438200497278950E+00
   0.1502420507738547E-31
   0.9574644907887190E+00
  -0.1788179577923315E-31
   0.9414966148989289E+00
   0.1314269134632825E-31
   0.1037118619050029E+01
  -0.2075611208886033E-30
   0.9258160078385018E+00
  -0.3401675336798091E-31
   0.9322396274607496E+00
  -0.7674052728268865E-31
   0.9538055160774551E+00
  -0.3489675003819891E-31
   0.9520449750523556E+00
  -0.4171251379419239E-31
   0.9351031663341316E+00
  -0.1567210046053009E-31
   0.9565494747213656E+00
  -0.2962197743382916E-31
   0.9378636499084390E+00
  -0.1484874463322735E-32
   0.9303454769749571E+00
  -0.2936429727151184E-31
   0.9446462905748605E+00
   0.1258033701749804E-31
   0.8862346498509281E+00
   0.5292412344566685E-31
   0.9424042471060058E+00
   0.1081199445296300E-30
   0.9637059466990302E+00
  -0.3482917017990885E-31
   0.1008354789277655E+01
  -0.1318389078269233E-32
   0.1006713667429600E+01
   0.1292837597929367E-32
   0.1001956911553548E+01
  -0.1457188255907587E-32
   0.1003215473739175E+01
  -0.4883706196634404E-32
   0.1004119570349436E+01
  -0.6467167427906856E-32
   0.1005207467649275E+01
  -0.5563330910968187E-32
   0.1004249628823013E+01
  -0.1801640054523449E-32
   0.1008267952391995E+01
  -0.4610696660793023E-32
   0.1023868975667952E+01
   0.4411159613476393E-33
   0.1063754884848153E+01
   0.3370479649757932E-32
   0.1019393765524995E+01
   0.2549869002694492E-32
   0.1001778967309383E+01
  -0.2391032045117403E-32
   0.9645833827409447E+00
  -0.5009946935282146E-31
   0.1005262834508849E+01
  -0.4527440847070411E-32
   0.1000745160071396E+01
  -0.6723007735264148E-33
   0.1008696083689931E+01
  -0.3736314636239299E-32
   0.1008037474694270E+01
   0.1512451610486015E-32
   0.1002353127778648E+01
  -0.4723550490859752E-32
   0.9980185150541342E+00
  -0.2359792424774561E-32
   0.1000592006057246E+01
  -0.3289148762888234E-32
   0.1001620206741972E+01
  -0.4554179347148633E-32
   0.9828034351346023E+00
  -0.1135419995135574E-31
   0.9843904234149210E+00
  -0.8359147141053095E-32
   0.9834131108499105E+00
  -0.4733175588274018E-31
   0.9790348055103014E+00
  -0.3587045090465095E-31
   0.9904750302305870E+00
  -0.1230694626784413E-31
   0.9935188133400820E+00
  -0.2614181856725183E-32
   0.1002005695817145E+01
  -0.1277968247462488E-32
   0.1002129681068117E+01
  -0.1233368742148540E-32
   0.1002270623854457E+01
  -0.7073231149624599E-33
   0.1001791397066703E+01
  -0.5448319880758207E-33
   0.1009817837828240E+01
   0.1297771451770811E-32
   0.1006507630069006E+01
  -0.3876962066164937E-32
   0.9561124037965770E+00
  -0.3365519491742549E-31
   0.9252822840285666E+00
  -0.3956317401815912E-31
   0.1007054434620467E+01
   0.7713392366917664E-33
   0.1004492765376137E+01
   0.8620214195483335E-34
   0.9145128137045010E+00
  -0.4174688319023670E-31
   0.9091576777700064E+00
  -0.2042748001050704E-31
   0.8752464180355074E+00
  -0.1987716978225517E-31
   0.9767970805515317E+00
  -0.1297724755118611E-31
   0.1000540469341307E+01
  -0.2763891372177918E-32
   0.1005827572889716E+01
   0.3766653854116932E-33
   0.1012896758113841E+01
   0.1001022664876705E-32
   0.1011680806425362E+01
   0.7227043348545908E-33
   0.1010416984778995E+01
   0.1098111384586332E-33
   0.1005458149932356E+01
   0.3322101271445177E-33
   0.9909162244722984E+00
  -0.7159155658934035E-32
   0.1005148537845268E+01
  -0.1646640584677874E-32
   0.9860888904528575E+00
  -0.2083805253415968E-32
   0.1005592202567574E+01
  -0.1808012707893293E-32
   0.1004239576050955E+01
  -0.2051571911007202E-32
   0.1002885748952089E+01
  -0.1679778640693087E-32
   0.1003349864923162E+01
  -0.1849792767897385E-32
   0.1003998154284783E+01
  -0.2025126246484001E-32
   0.1005114866508093E+01
  -0.5166303319075072E-32
   0.1003222797562112E+01
  -0.5847320171501633E-32
   0.1002666931367001E+01
  -0.4082288735650337E-32
   0.1002585617441225E+01
  -0.4170798263490450E-32
   0.1004068643552083E+01
  -0.3732097275290151E-32
   0.1004304383803553E+01
  -0.4569000393007982E-32
   0.1001641024060346E+01
  -0.3315398462995489E-32
   0.1002275909251427E+01
  -0.3838883732787413E-32
   0.1002542972684728E+01
  -0.3708129972068455E-32
   0.1003470334997525E+01
  -0.5344235749836221E-32
   0.1003379336869207E+01
  -0.5306793524598199E-32
   0.1003232737847171E+01
  -0.2891372907674093E-32
   0.1004429385680307E+01
  -0.5441429510430651E-32
   0.1004323823373875E+01
  -0.5630259432857176E-32
   0.1003652734623759E+01
  -0.3699857428482304E-32
   0.1003717890977777E+01
  -0.5513231123949084E-32
   0.1004318204930794E+01
  -0.5865256063062292E-32
   0.1004461722740792E+01
  -0.6188575981735071E-32
   0.1003628264254841E+01
  -0.5729443362467471E-32
   0.1064485255257755E+01
  -0.6169092775169214E-32
   0.1028441571038203E+01
   0.2143769239740572E-32
   0.1009605545521111E+01
  -0.3221288335136600E-32
   0.1006626622416506E+01
  -0.3719818645602366E-32
   0.1163967071195662E+01
  -0.4691687222410338E-31
   0.1086026331483877E+01
  -0.2899448620949696E-32
   0.1007906678366441E+01
  -0.3541144278320616E-32
   0.1007251389795004E+01
  -0.3821389061952805E-32
   0.1006796146947280E+01
  -0.3647012332253060E-32
   0.1013053422278484E+01
  -0.2668678796676112E-32
   0.1019340237605124E+01
   0.3039769750099355E-32
   0.1235122882997510E+01
  -0.1137399653300388E-30
   0.1032535305194665E+01
   0.5374869713842559E-32
   0.1046564879087236E+01
   0.8898617540456851E-32
   0.1201701558473426E+01
  -0.2041199190002745E-31
   0.1014671691828873E+01
  -0.2585498450395242E-32
   0.1032296947017597E+01
   0.4149097676910564E-32
   0.1028221622840907E+01
   0.3282695920597154E-32
   0.1014639963494993E+01
  -0.1076020108349271E-32
   0.1028986478511814E+01
  -0.5997723124935638E-33
   0.1002004166168844E+01
  -0.2309062130747101E-32
   0.9608154550237686E+00
  -0.4501865289081903E-31
   0.1006857481843429E+01
  -0.3901801532329566E-32
   0.1001324418858093E+01
  -0.6148927691477149E-32
   0.1010797628975333E+01
  -0.1807598328886967E-32
   0.1012230912194816E+01
  -0.4505760497524175E-32
   0.1000939076616846E+01
  -0.4605142475268726E-32
   0.9979355197586733E+00
  -0.4919854158598561E-32
   0.9980684195542443E+00
  -0.4007385106013345E-32
   0.1001191297315197E+01
  -0.4325331565283774E-32
   0.9842095805653224E+00
  -0.2063312842866484E-31
   0.9815225336926960E+00
  -0.1482191416319950E-31
   0.9648738023103108E+00
  -0.4544666110524627E-31
   0.9680939993373691E+00
  -0.4916546111988628E-31
   0.9914081219790050E+00
  -0.1964580771750967E-31
   0.9910909928523428E+00
  -0.6074941166341873E-32
   0.9925582261845823E+00
  -0.5686978496715544E-32
   0.1001726957477683E+01
  -0.3480090341035178E-32
   0.9993240255478910E+00
  -0.3736697425357435E-32
   0.9941429980472964E+00
  -0.5612726211265376E-32
   0.1006981981725064E+01
   0.4517674594221484E-33
   0.1022612594861870E+01
   0.5287840031767126E-32
   0.1001120331120490E+01
  -0.2122868323679532E-31
   0.1008783389419717E+01
  -0.3683926753448186E-32
   0.1004774232007548E+01
  -0.4070753347566911E-32
   0.1009029918383715E+01
  -0.2868330749577166E-32
   0.9967207521813716E+00
  -0.5973104837118114E-32
   0.1005570363085915E+01
  -0.2352821330852541E-32
   0.1003324272403875E+01
  -0.5025749933874118E-32
   0.9949841367368262E+00
  -0.3836235837772118E-32
   0.9833498990361976E+00
  -0.8755685714339220E-32
   0.9944488368979678E+00
  -0.5032451271911786E-32
   0.9973469111580341E+00
  -0.3733775497422982E-32
   0.9932496703546008E+00
  -0.5535900273377873E-32
   0.1001311081018370E+01
  -0.4116843454847309E-32
   0.1003000076690279E+01
  -0.4468819521646761E-32
   0.1002187723211743E+01
  -0.4059512737506528E-32
   0.9947118434101018E+00
  -0.3102558409846473E-32
   0.9937827846641021E+00
  -0.3583289667510211E-32
   0.1004861189120063E+01
  -0.4837100711021191E-32
   0.1020100861293634E+01
  -0.6997532291755250E-32
   0.1005336859211311E+01
  -0.1030093594507395E-31
   0.9817042712517715E+00
  -0.1686854447022423E-31
   0.1004974063219587E+01
  -0.4653889953380555E-32
   0.1012374051649874E+01
  -0.2245018881080389E-32
   0.9873717230548036E+00
  -0.2688445839456565E-31
   0.9551280342181709E+00
  -0.1183809784305957E-32
   0.9865249446328549E+00
  -0.1926561811010302E-31
   0.9865912743857895E+00
  -0.1248827864949740E-31
   0.9920062320136509E+00
  -0.4788003319806979E-31
   0.9934432056581661E+00
  -0.2361879792918131E-31
   0.9960678028397177E+00
  -0.5865940325009607E-31
   0.1037399791765190E+01
  -0.1612946470613801E-31
   0.1033160684955500E+01
  -0.7994222112231420E-32
   0.1001443337847538E+01
  -0.2747954848786842E-32
   0.1001927960464760E+01
  -0.4776255008034048E-32
   0.9912307534193000E+00
  -0.3042304908857878E-32
   0.9911139796092269E+00
  -0.8045355767768984E-32
   0.9649427271095418E+00
  -0.1821462104159173E-31
   0.9933785547002162E+00
  -0.4469607845436062E-32
   0.1006090844285858E+01
  -0.4564123046658067E-33
   0.1001962954815537E+01
  -0.1176417414641981E-32
   0.9908623397937713E+00
  -0.6793652201999548E-32
   0.9742169491353453E+00
  -0.1689383399242602E-31
   0.9420657907844533E+00
  -0.3346815427425218E-31
   0.9821539198071263E+00
  -0.2440154557090965E-31
   0.9794778507014598E+00
  -0.1144519563752006E-31
   0.9704366373131175E+00
  -0.1548650599519759E-31
   0.9720881352394687E+00
  -0.3528171088261449E-31
   0.9557896530619654E+00
  -0.1215037843847544E-31
   0.9498087836530738E+00
  -0.3122665189232078E-31
   0.9529905788934506E+00
  -0.4051603496773777E-31
   0.1002635185595709E+01
  -0.3552829198530325E-32
   0.1002474935594112E+01
  -0.4746269905083971E-32
   0.1000512806866467E+01
  -0.3039341255770873E-32
   0.1001674929851402E+01
  -0.1518924098957950E-32
   0.9610029063761804E+00
  -0.3574285635417235E-31
   0.9492452457335568E+00
  -0.6631948770961697E-31
   0.9586634891923590E+00
  -0.3154771881404588E-31
   0.1001121132031389E+01
  -0.4384390495060602E-32
   0.1000500946751425E+01
  -0.3466007371644878E-32
   0.1001159354143140E+01
  -0.2029342759355570E-32
   0.9807417383581756E+00
  -0.1683706006311762E-31
   0.9805563569151570E+00
  -0.2124693801915928E-31
   0.9629219756960478E+00
  -0.2912436676245014E-31
SCALARS u double 1
LOOKUP_TABLE default
   0.0000000000000000E+00
   0.0000000000000000E+00
   0.0000000000000000E+00
   0.0000000000000000E+00
   0.0000000000000000E+00
   0.0000000000000000E+00
   0.0000000000000000E+00
   0.0000000000000000E+00
   0.0000000000000000E+00
   0.0000000000000000E+00
   0.0000000000000000E+00
   0.0000000000000000E+00
   0.0000000000000000E+00
   0.0000000000000000E+00
   0.0000000000000000E+00
   0.0000000000000000E+00
   0.0000000000000000E+00
   0.0000000000000000E+00
   0.0000000000000000E+00
   0.0000000000000000E+00
   0.0000000000000000E+00
   0.0000000000000000E+00
   0.0000000000000000E+00
   0.0000000000000000E+00
   0.0000000000000000E+00
   0.0000000000000000E+00
   0.0000000000000000E+00
   0.0000000000000000E+00
   0.0000000000000000E+00
   0.0000000000000000E+00
   0.0000000000000000E+00
   0.0000000000000000E+00
   0.0000000000000000E+00
   0.0000000000000000E+00
   0.0000000000000000E+00
   0.0000000000000000E+00
   0.0000000000000000E+00
   0.0000000000000000E+00
   0.0000000000000000E+00
   0.0000000000000000E+00
   0.0000000000000000E+00
   0.0000000000000000E+00
   0.0000000000000000E+00
   0.0000000000000000E+00
   0.0000000000000000E+00
   0.0000000000000000E+00
   0.0000000000000000E+00
   0.0000000000000000E+00
   0.0000000000000000E+00
   0.0000000000000000E+00
   0.0000000000000000E+00
   0.0000000000000000E+00
   0.0000000000000000E+00
   0.0000000000000000E+00
   0.0000000000000000E+00
   0.0000000000000000E+00
   0.0000000000000000E+00
   0.0000000000000000E+00
   0.0000000000000000E+00
   0.0000000000000000E+00
   0.0000000000000000E+00
   0.0000000000000000E+00
   0.0000000000000000E+00
   0.0000000000000000E+00
   0.0000000000000000E+00
   0.0000000000000000E+00
   0.4945907247009462E+00
  -0.2503406094146553E-31
   0.5336252005435066E+00
  -0.9237957023222570E-32
   0.5182743299699391E+00
  -0.3134199959440286E-32
   0.4930733220100944E+00
  -0.7119763181390992E-34
   0.4847791488128688E+00
   0.8352196959062421E-32
   0.4868175301294017E+00
   0.1285076859528819E-31
   0.4891448691730775E+00
   0.1139798503794136E-31
   0.4958012498106977E+00
   0.1938328363243974E-32
   0.4899013861469979E+00
   0.6903135621279313E-32
   0.4718076891013078E+00
   0.2261393457459708E-33
   0.4448878733414103E+00
  -0.4956595046060454E-32
   0.4844372726657716E+00
   0.5356453975369372E-31
   0.5097754342580237E+00
  -0.6538435919378269E-33
   0.4401835433178249E+00
   0.9161010680171575E-31
   0.4949589864003036E+00
   0.5817199203221594E-32
   0.5223009719699088E+00
  -0.5215180811310877E-32
   0.4962753129059060E+00
   0.2728091259347118E-32
   0.5223837633603218E+00
  -0.1083642825191279E-31
   0.5038176478172638E+00
   0.3049102358498581E-32
   0.5644337338130246E+00
  -0.3178482063042950E-32
   0.5245902563658678E+00
  -0.3421296813560476E-32
   0.4991022503575500E+00
   0.3624738114620855E-32
   0.5729202513681612E+00
   0.1632534861033416E-31
   0.5693574307362905E+00
  -0.6350384363384520E-33
   0.3752192431406999E+00
   0.9373783988582271E-31
   0.4003629668488446E+00
   0.6331389468393942E-31
   0.5599397017662342E+00
   0.3108781007829256E-31
   0.5562263478056748E+00
  -0.1472512501016539E-32
   0.4942659541045787E+00
  -0.1217730058999528E-32
   0.4948662115470457E+00
  -0.2341156220093988E-32
   0.4925605774250952E+00
  -0.3789267446953105E-32
   0.4913957257227641E+00
  -0.2314746834515478E-32
   0.5162608329172897E+00
  -0.6644964476177193E-33
   0.5363671678638030E+00
   0.5456771215379642E-32
   0.4951364779110963E+00
  -0.4949564338715832E-32
   0.4520489017257385E+00
  -0.3405100842145248E-31
   0.5129014851297528E+00
  -0.1332318420270037E-32
   0.5117702087495006E+00
  -0.2592081924196571E-32
   0.4786306644581205E+00
  -0.1180128113838673E-31
   0.4931111678093912E+00
  -0.3456303126436036E-31
   0.4600264128127904E+00
  -0.7818906817462713E-31
   0.5242595949793181E+00
  -0.2536037607320979E-31
   0.5299948672216247E+00
  -0.3418602755207945E-32
   0.5129698633700834E+00
  -0.4542968443319938E-32
   0.5328927310780620E+00
   0.1343928152673318E-32
   0.5309787156606133E+00
   0.3326107591989856E-32
   0.5309762407507680E+00
  -0.2769827538875330E-32
   0.5063651518644607E+00
  -0.4152528237754781E-32
   0.5279528112362938E+00
  -0.1519639251901665E-31
   0.5409240728844744E+00
  -0.4822246227885598E-32
   0.5363716625959727E+00
  -0.1521078423330211E-31
   0.5374202289609402E+00
  -0.6351717131180819E-32
   0.4965362398157043E+00
   0.7767531277905711E-33
   0.4975367395854137E+00
   0.6549023322932048E-33
   0.4963815886394848E+00
   0.2130898986161646E-32
   0.4955155918510871E+00
   0.1995150578766525E-32
   0.4904178748890298E+00
   0.9746108664316830E-32
   0.4902513610168069E+00
   0.1083519686410050E-31
   0.4861586453664668E+00
   0.5928979916690336E-32
   0.4854090405971705E+00
   0.5639142183141234E-32
   0.4931963974842902E+00
   0.7481427388080562E-32
   0.4910340994942561E+00
   0.9825876130203728E-32
   0.4831647423648794E+00
   0.2556080737081032E-32
   0.4872471736582906E+00
   0.3609470333598850E-32
   0.4880047076010754E+00
   0.3486268578376445E-32
   0.4872343594508176E+00
   0.8909354232500553E-32
   0.4882157162439141E+00
   0.1068241748085192E-31
   0.4952581799527601E+00
   0.6041404246417878E-32
   0.4900730175487938E+00
   0.1213834328142136E-31
   0.4903608114614235E+00
   0.1135140570353933E-31
   0.4944359921648150E+00
   0.8085084196551300E-32
   0.4868236347708005E+00
   0.1037959155654824E-31
   0.4892758887303351E+00
   0.1174429003112965E-31
   0.4881480122075527E+00
   0.1259433051133077E-31
   0.4878258608489443E+00
   0.1050759143205209E-31
   0.4449104373451435E+00
  -0.4105624195729055E-32
   0.4700138079316159E+00
  -0.1583487804629631E-32
   0.4891778103682106E+00
   0.3420870789947419E-32
   0.4885970923382049E+00
   0.8942818506989935E-32
   0.4510303846928672E+00
   0.3546015376324841E-31
   0.4681802390041196E+00
  -0.1277389020212409E-31
   0.4876667527420304E+00
   0.5615059285041904E-32
   0.4868264669445411E+00
   0.8283951149004444E-32
   0.4909267536011325E+00
   0.6382296249639060E-32
   0.4793951166947403E+00
   0.6163463070813681E-32
   0.4657914047611121E+00
  -0.3735434456672328E-32
   0.3794394803389478E+00
   0.3591264710912162E-31
   0.4903638325738093E+00
  -0.4087975964146388E-31
   0.4487974980595827E+00
  -0.1380827294935067E-31
   0.4432391554274330E+00
   0.1236287915794249E-31
   0.4845721109090356E+00
   0.3619854030420265E-32
   0.4621874571023082E+00
  -0.6554704795229414E-32
   0.4663614137210682E+00
  -0.3098530407662417E-31
   0.4747794114212966E+00
   0.2521896386493137E-32
   0.4893814495728022E+00
   0.5096310667728562E-31
   0.5085691744908211E+00
  -0.3689375468043029E-33
   0.4305370895338370E+00
   0.4073842360156666E-31
   0.4927305113255646E+00
   0.4984417962042334E-32
   0.5320334158106037E+00
  -0.5117138380063841E-32
   0.4913862167439273E+00
   0.9631445922816022E-33
   0.5209476994969674E+00
  -0.2236253222129538E-32
   0.5061333430233849E+00
   0.1668745581619501E-32
   0.5690659822907604E+00
   0.1122416194805273E-31
   0.5275016940403879E+00
   0.4020452375590600E-33
   0.5015056927405140E+00
   0.3361624563913130E-32
   0.5821779743342718E+00
   0.3581374021346250E-31
   0.5691759991710482E+00
   0.1983684971279931E-31
   0.3403302551403161E+00
   0.1004094614521896E-30
   0.3786149532993913E+00
  -0.1185940436424303E-31
   0.5753349501941973E+00
   0.5551251959790672E-31
   0.5668548186593130E+00
   0.9988932324663350E-32
   0.5703058540026300E+00
  -0.4924590251269967E-32
   0.5291884733956396E+00
  -0.8601047060269005E-32
   0.5449841657579896E+00
  -0.1358274870679946E-31
   0.5719106412630997E+00
   0.7506346481956511E-32
   0.5385672702818054E+00
  -0.2199764311086034E-31
   0.5475909115328070E+00
   0.2252511333099997E-31
   0.5821520950451051E+00
   0.3436803327862038E-31
   0.4925323655513243E+00
  -0.6090038336324026E-32
   0.5041574832488985E+00
   0.1073595039422878E-32
   0.4961298273716449E+00
  -0.2295826020747742E-32
   0.5562741227082286E+00
   0.4200123569692628E-32
   0.4757840501975046E+00
  -0.3959419440796851E-31
   0.4950197866526018E+00
   0.6359979390527878E-32
   0.5496189612493091E+00
  -0.7029901150873595E-32
   0.5889516039619980E+00
   0.2028649879954407E-31
   0.5839552444862248E+00
   0.1370908784347407E-32
   0.5468178964419038E+00
  -0.4321839483159001E-32
   0.5803876783543210E+00
   0.9786617533141853E-33
   0.5106079676823813E+00
  -0.1884868724078807E-32
   0.5029565991574340E+00
   0.7214345949200307E-33
   0.5033151246305345E+00
   0.9968181882173439E-33
   0.5676214236779313E+00
   0.1965462365261261E-32
   0.5564625305605959E+00
  -0.1972265506976052E-32
   0.4947149886867687E+00
   0.2843178462938708E-32
   0.5506790064356842E+00
  -0.1676875757218660E-31
   0.5513584179829234E+00