# vtk DataFile Version 2.0
FUN3D:global_image_vtk
ASCII
DATASET UNSTRUCTURED_GRID
POINTS 213 double
   -0.5474685441687832E-02    0.5000000000000026E-30    0.2504941971167291E+01
    0.1212121212121191E-30    0.8038138598670530E-04    0.5000000000000000E-30
    0.1245419105183472E+01    0.1000000000000000E-29    0.2504941971167291E+01
    0.1212121212121191E-30    0.1039425058013133E-03    0.1000000000000000E-29
    0.2497696093128780E+01    0.5000000000000000E-30    0.2504941971167291E+01
    0.1212121212121191E-30    0.1101298164665754E-03    0.5000000000000000E-30
    0.3750590968915824E+01    0.1000000000000000E-29    0.2504941971167291E+01
    0.1212121212121191E-30    0.1356499004943612E-03    0.1000000000000000E-29
    0.5003221331742151E+01    0.5000000000000000E-30    0.2504941971167291E+01
    0.1212121212121191E-30    0.9668873038898296E-04    0.5000000000000000E-30
    0.5004676687979097E+01    0.1000000000000000E-29    0.1281291202167040E+01
    0.4999999999999861E-30    0.1638053019384356E-03    0.1000000000000000E-29
    0.5004772673778115E+01    0.4999999999999975E-30    0.2775079906482894E-01
    0.9999999999999899E-30    0.1903478008447590E-03    0.5000000000000000E-30
    0.5003581183341212E+01    0.1000000000000000E-29   -0.1225853508883529E+01
    0.4999999999999899E-30    0.1607765204486578E-03    0.1000000000000000E-29
    0.5001952533742191E+01    0.5000000000000000E-30   -0.2496589036641631E+01
    0.1212121212121197E-30    0.1082258890302557E-03    0.5000000000000000E-30
    0.3750348111606544E+01    0.1000000000000000E-29   -0.2496589036641631E+01
    0.1212121212121197E-30    0.1458753696815807E-03    0.1000000000000000E-29
    0.2498611462994928E+01    0.5000000000000000E-30   -0.2496589036641631E+01
    0.1212121212121197E-30    0.1008933264248224E-03    0.5000000000000000E-30
    0.1247175269333276E+01    0.1000000000000000E-29   -0.2496589036641631E+01
    0.1212121212121197E-30    0.1108587619169654E-03    0.1000000000000000E-29
   -0.3383959865719266E-02    0.5000000000000026E-30   -0.2496589036641631E+01
    0.1212121212121197E-30    0.8107259626494168E-04    0.5000000000000000E-30
   -0.4257768979765597E-02    0.1000000000000000E-29   -0.1225734811642590E+01
    0.4999999999999899E-30    0.3415458742295208E-04    0.1000000000000000E-29
   -0.5251592448509257E-02    0.5000000000000026E-30    0.2619486024420453E-01
    0.9999999999999899E-30    0.1038724387187884E-03    0.5000000000000000E-30
   -0.5676060312426845E-02    0.1000000000000005E-29    0.1278221569065707E+01
    0.4999999999999887E-30    0.8224601702150336E-04    0.1000000000000000E-29
    0.9003209617952581E+00    0.5000000000000026E-30    0.1608979112280158E+01
    0.9999999999999875E-30    0.8704140727672227E-04    0.5000000000000000E-30
    0.3983172210692289E+01    0.1000000000000000E-29   -0.1561211904840279E+01
    0.4999999999999899E-30    0.1757116720370600E-03    0.1000000000000000E-29
    0.4035602039224469E+01    0.5000000000000000E-30    0.1486760030415520E+01
    0.9999999999999848E-30    0.1713312862106631E-03    0.5000000000000000E-30
    0.1036613723302902E+01    0.1000000000000000E-29   -0.1455626429916848E+01
    0.4999999999999899E-30    0.1047189301532914E-03    0.1000000000000000E-29
    0.1094353480630802E+01    0.5000000000000026E-30   -0.2964622010671852E+00
    0.9999999999999848E-30    0.1260590236917269E-03    0.5000000000000000E-30
    0.7298400267480001E+00    0.1000000000000005E-29    0.6874684746719117E+00
    0.4999999999999519E-30    0.1044598640544958E-03    0.1000000000000000E-29
    0.1617018659308944E+01    0.5000000000000026E-30    0.8553208024939390E+00
    0.9999999999990845E-30    0.1529810904974394E-03    0.5000000000000000E-30
    0.2143199662875790E+01    0.1000000000000000E-29   -0.1627128509216730E+01
    0.4999999999999899E-30    0.1606170425226816E-03    0.1000000000000000E-29
    0.4088840445400889E+01    0.5000000000000000E-30   -0.4351047825936264E+00
    0.9999999999999899E-30    0.2719933294109134E-03    0.5000000000000000E-30
    0.2977916511248925E+01    0.1000000000000000E-29   -0.8334991483094479E+00
    0.4999999999990870E-30    0.2245596931861327E-03    0.1000000000000000E-29
    0.3044093241383418E+01    0.5000000000000000E-30   -0.1814361225108581E+01
    0.9999999999999899E-30    0.1617000112420497E-03    0.5000000000000000E-30
    0.3427866614805211E+01    0.1000000000000000E-29    0.3813904839972497E+00
    0.4999999999999887E-30    0.2936955483429093E-03    0.1000000000000000E-29
    0.4313225355351749E+01    0.5000000000000000E-30    0.5489133376342517E+00
    0.9999999999990845E-30    0.2313009573592373E-03    0.5000000000000000E-30
    0.1823032737597358E+01    0.1000000000000000E-29    0.1771265193544254E+01
    0.4999999999999861E-30    0.1836202887151583E-03    0.1000000000000000E-29
    0.2806311152168375E+01    0.5000000000000000E-30    0.1358629373600680E+01
    0.9999999999999848E-30    0.1943492163983818E-03    0.5000000000000000E-30
    0.1891860875936711E+01    0.1000000000000000E-29   -0.8481310365607525E+00
    0.4999999999990870E-30    0.1670645501816170E-03    0.1000000000000000E-29
    0.2268769200166909E+01    0.5000000000000026E-30    0.7723691819196567E-01
    0.9999999999999899E-30    0.2072307783085314E-03    0.5000000000000000E-30
    0.5000000000000000E+01    0.6455604926276831E-46    0.2504941971167291E+01
    0.1212121212121191E-30    0.1250000000000000E+01    0.6455604926276831E-46
    0.5000000000000000E+01    0.6455604926276831E-46    0.2504941971167291E+01
    0.1212121212121191E-30    0.2500000000000000E+01    0.6455604926276831E-46
    0.5000000000000000E+01    0.6455604926276831E-46    0.2504941971167291E+01
    0.1212121212121191E-30    0.3750000000000000E+01    0.6455604926276831E-46
    0.5000000000000000E+01    0.6455604926276831E-46    0.2504941971167291E+01
    0.1212121212121191E-30    0.5000000000000000E+01    0.6455604926276831E-46
    0.3750000000000000E+01    0.6455604926276831E-46    0.2504941971167291E+01
    0.1212121212121191E-30    0.5000000000000000E+01    0.6455604926276831E-46
    0.2500000000000000E+01    0.6455604926276831E-46    0.2504941971167291E+01
    0.1212121212121191E-30    0.5000000000000000E+01    0.6455604926276831E-46
    0.1250000000000000E+01    0.6455604926276831E-46    0.2504941971167291E+01
    0.1212121212121191E-30    0.5000000000000000E+01    0.6455604926276831E-46
   -0.1031291192016316E-18    0.6455604926276831E-46    0.2504941971167291E+01
    0.1212121212121191E-30    0.5000000000000000E+01    0.6455604926276831E-46
   -0.1031291192016316E-18    0.6455604926276831E-46    0.2504941971167291E+01
    0.1212121212121191E-30    0.3750000000000000E+01    0.6455604926276831E-46
   -0.1031291192016316E-18    0.6455604926276831E-46    0.2504941971167291E+01
    0.1212121212121191E-30    0.2500000000000000E+01    0.6455604926276831E-46
   -0.1031291192016316E-18    0.6455604926276831E-46    0.2504941971167291E+01
    0.1212121212121191E-30    0.1250000000000000E+01    0.6455604926276831E-46
    0.9588956434871092E+00    0.4088323204879990E-30    0.2504941971167291E+01
    0.1212121212121191E-30    0.9696525519543873E+00    0.8253355966551221E-30
    0.3981953078951403E+01    0.7369699780746009E-31    0.2504941971167291E+01
    0.1212121212121191E-30    0.4070563854751271E+01    0.1516277355835495E-30
    0.4036122187252336E+01    0.5331184872988754E-30    0.2504941971167291E+01
    0.1212121212121191E-30    0.1017567520094671E+01    0.8139234257758195E-30
    0.9637572773153896E+00   -0.9331067766635252E-32    0.2504941971167291E+01
    0.1212121212121191E-30    0.3973598203142229E+01    0.1306014370157125E-30
    0.1546540136992396E+01    0.8002905657926356E-31    0.2504941971167291E+01
    0.1212121212121191E-30    0.2931570169315601E+01    0.3996885550959742E-30
    0.6973799521244316E+00    0.3481309068478121E-32    0.2504941971167291E+01
    0.1212121212121191E-30    0.3070319952453757E+01    0.2100037182684701E-30
    0.8903742148356882E+00    0.7712488796390162E-31    0.2504941971167291E+01
    0.1212121212121191E-30    0.2056562238187738E+01    0.4294668085391249E-30
    0.2183041995146014E+01    0.3782461580913986E-31    0.2504941971167291E+01
    0.1212121212121191E-30    0.3960694449828019E+01    0.2259705361714803E-30
    0.3855844872709870E+01    0.1784932175604496E-30    0.2504941971167291E+01
    0.1212121212121191E-30    0.2933250588118630E+01    0.3558534735540268E-30
    0.3152611367438030E+01    0.1115283363378051E-30    0.2504941971167291E+01
    0.1212121212121191E-30    0.3637668388416194E+01    0.2959845527165623E-30
    0.3103307385241871E+01    0.5185271477190937E-31    0.2504941971167291E+01
    0.1212121212121191E-30    0.4332607813099731E+01    0.1521436499781562E-30
    0.3266711045517939E+01    0.3601961362742666E-30    0.2504941971167291E+01
    0.1212121212121191E-30    0.1889656617463738E+01    0.6353768785675365E-30
    0.4232537554484796E+01    0.2580489315429791E-30    0.2504941971167291E+01
    0.1212121212121191E-30    0.1918626969802351E+01    0.4090791405811659E-30
    0.1905522374036519E+01    0.6572817491139299E-30    0.2504941971167291E+01
    0.1212121212121191E-30    0.7226290832134608E+00    0.8977306600899777E-30
    0.2879767723645805E+01    0.6107141644546936E-30    0.2504941971167291E+01
    0.1212121212121191E-30    0.9080945892181980E+00    0.8180347387425851E-30
    0.2012711365064515E+01    0.3615868018466283E-30    0.2504941971167291E+01
    0.1212121212121191E-30    0.1767082390977754E+01    0.7060364642884154E-30
    0.2669681472994637E+01    0.1849800474544038E-30    0.2504941971167291E+01
    0.1212121212121191E-30    0.2853394335010791E+01    0.4820509466871930E-30
    0.5000000000000000E+01    0.6455604926276831E-46    0.1250000000000000E+01
    0.6455604926276831E-46    0.5000000000000000E+01    0.6455604926276831E-46
    0.5000000000000000E+01    0.6455604926276831E-46   -0.1031291192016316E-18
[...]
POINT_DATA 213
SCALARS rho double 1
LOOKUP_TABLE default
   0.1346108316263254E+01
  -0.1177608889789373E-30
   0.9572039998600532E+00
   0.2108874295908830E-31
   0.9461172176740150E+00
  -0.8777077100617040E-31
   0.9421724422233181E+00
   0.2463028740687413E-31
   0.8436076751989648E+00
  -0.1732596975617473E-31
   0.7742023688679500E+00
   0.2325429216601035E-30
   0.7627583542973827E+00
   0.8548765174561295E-31
   0.7661562012440292E+00
   0.3222200611771027E-31
   0.8310489475274555E+00
  -0.1016795665032332E-30
   0.9353548242975460E+00
   0.3068730503137218E-31
   0.9343897288268648E+00
  -0.7551866941292663E-31
   0.9616167925151873E+00
  -0.8801524610498316E-32
   0.1448475453679515E+01
  -0.2080910580669007E-30
   0.1495420693456565E+01
  -0.7365293102149516E-30
   0.1646729694953913E+01
  -0.3640616153924778E-30
   0.1426611750618526E+01
  -0.5489176093563017E-30
   0.1009807294814252E+01
  -0.4443517874319607E-31
   0.9511451599258058E+00
  -0.2350095873654114E-31
   0.9438202812352273E+00
   0.1502190680030586E-31
   0.9574649706908231E+00
  -0.1788241073970914E-31
   0.9414971310207754E+00
   0.1314199484834007E-31
   0.1037119050552769E+01
  -0.2075618299961134E-30
   0.9258166083497273E+00
  -0.3401752252255246E-31
   0.9322402496787980E+00
  -0.7674207917364833E-31
   0.9538058253071970E+00
  -0.3489748562312139E-31
   0.9520452717008222E+00
  -0.4171330874022097E-31
   0.9351035433474126E+00
  -0.1567348335019691E-31
   0.9565496449253675E+00
  -0.2962286668535439E-31
   0.9378638716756680E+00
  -0.1486939953564329E-32
   0.9303460519868506E+00
  -0.2936548176877745E-31
   0.9446467733334069E+00
   0.1257888806643290E-31
   0.8862352680534284E+00
   0.5292302000439575E-31
   0.9424046351261661E+00
   0.1081191112615909E-30
   0.9637013741733473E+00
  -0.3482002037730468E-31
   0.1008356272044944E+01
  -0.1320219048094448E-32
   0.1006712429709871E+01
   0.1297318090096328E-32
   0.1001958930205304E+01
  -0.1468366600904029E-32
   0.1003217522115546E+01
  -0.4892409031005388E-32
   0.1004120115973781E+01
  -0.6469113528952452E-32
   0.1005208064902658E+01
  -0.5564399479262276E-32
   0.1004249961603990E+01
  -0.1802699867563599E-32
   0.1008268330106259E+01
  -0.4612036135433759E-32
   0.1023869441005896E+01
   0.4401466680166258E-33
   0.1063755461250259E+01
   0.3369728210526857E-32
   0.1019394088224977E+01
   0.2549105377459761E-32
   0.1001777911845247E+01
  -0.2389864649605717E-32
   0.9645774231497781E+00
  -0.5007782486491579E-31
   0.1005263328272080E+01
  -0.4528993170947848E-32
   0.1000745736275092E+01
  -0.6736924912176294E-33
   0.1008696549289946E+01
  -0.3737980223263832E-32
   0.1008037948454514E+01
   0.1511580693001738E-32
   0.1002353862047825E+01
  -0.4724772455171947E-32
   0.9980195530495675E+00
  -0.2360602298700485E-32
   0.1000592769357706E+01
  -0.3289514875385958E-32
   0.1001620641860697E+01
  -0.4554855496196529E-32
   0.9828039326493985E+00
  -0.1135559702926945E-31
   0.9843899726746392E+00
  -0.8360029187261365E-32
   0.9834136048390898E+00
  -0.4733372431117402E-31
   0.9790327232203272E+00
  -0.3586502084876977E-31
   0.9904757376070085E+00
  -0.1230853165120392E-31
   0.9935193468940741E+00
  -0.2614894719236690E-32
   0.1002008894346883E+01
  -0.1286898880315829E-32
   0.1002132240744529E+01
  -0.1236464679804823E-32
   0.1002273087521138E+01
  -0.7100226277159657E-33
   0.1001793578297201E+01
  -0.5490855197207058E-33
   0.1009816088027807E+01
   0.1298053686440207E-32
   0.1006507955582152E+01
  -0.3875899868410466E-32
   0.9561125617151616E+00
  -0.3365993390177870E-31
   0.9252807406676383E+00
  -0.3956040021350386E-31
   0.1007053966729326E+01
   0.7701779220643250E-33
   0.1004490981234749E+01
   0.8722824497957281E-34
   0.9145128351552744E+00
  -0.4174570681264443E-31
   0.9091570307030369E+00
  -0.2042561487726692E-31
   0.8752463079641377E+00
  -0.1988129894299494E-31
   0.9767979597407634E+00
  -0.1298079775429003E-31
   0.1000541360241155E+01
  -0.2765355855817158E-32
   0.1005826549297283E+01
   0.3753687439267052E-33
   0.1012896701668310E+01
   0.1001362992433146E-32
   0.1011680292165994E+01
   0.7244242598836664E-33
   0.1010415973639714E+01
   0.1112843136856885E-33
   0.1005456587395452E+01
   0.3299927148695617E-33
   0.9909167515212234E+00
  -0.7162257115105342E-32
   0.1005149610920291E+01
  -0.1645884578226490E-32
   0.9860895085449125E+00
  -0.2084164778904278E-32
   0.1005593206447771E+01
  -0.1807825355647917E-32
   0.1004239922232598E+01
  -0.2052520607574407E-32
   0.1002885969213362E+01
  -0.1680771350601771E-32
   0.1003350063078461E+01
  -0.1850814597462953E-32
   0.1003997944127809E+01
  -0.2025733607416102E-32
   0.1005115344746932E+01
  -0.5167190537840275E-32
   0.1003223209693075E+01
  -0.5847642495654601E-32
   0.1002669123761893E+01
  -0.4083145039929685E-32
   0.1002589508054995E+01
  -0.4180590231652764E-32
   0.1004069040374429E+01
  -0.3733398051215482E-32
   0.1004304991187211E+01
  -0.4571198946810196E-32
   0.1001643157085854E+01
  -0.3316477201973341E-32
   0.1002279136440370E+01
  -0.3841457970831453E-32
   0.1002546782020569E+01
  -0.3711249651693292E-32
   0.1003472000595617E+01
  -0.5345476869686605E-32
   0.1003380240374755E+01
  -0.5306870075986215E-32
   0.1003233137295522E+01
  -0.2892386693759331E-32
   0.1004429899220281E+01
  -0.5442574677330226E-32
   0.1004324039413554E+01
  -0.5630343723314119E-32
   0.1003653018135799E+01
  -0.3701265965601887E-32
   0.1003718560687945E+01
  -0.5517762605714537E-32
   0.1004319243041985E+01
  -0.5867641045937485E-32
   0.1004462563047399E+01
  -0.6191704704252549E-32
   0.1003629396212338E+01
  -0.5732793437718706E-32
   0.1064485256925122E+01
  -0.6168873491257191E-32
   0.1028442061791067E+01
   0.2142382263791692E-32
   0.1009605873439088E+01
  -0.3222380007449421E-32
   0.1006626987278262E+01
  -0.3720443513594725E-32
   0.1163967546375632E+01
  -0.4691744704987762E-31
   0.1086026686831201E+01
  -0.2900713331733806E-32
   0.1007907087193447E+01
  -0.3542416082688709E-32
   0.1007251825931673E+01
  -0.3822307408026870E-32
   0.1006796456312483E+01
  -0.3647498289235977E-32
   0.1013053883282704E+01
  -0.2669903666479526E-32
   0.1019340792084218E+01
   0.3038530441119868E-32
   0.1235123173296766E+01
  -0.1137411829028670E-30
   0.1032535565187870E+01
   0.5374152023178804E-32
   0.1046565480922848E+01
   0.8897350387039989E-32
   0.1201701822065585E+01
  -0.2041248025674335E-31
   0.1014672138144503E+01
  -0.2586216300540231E-32
   0.1032297498308545E+01
   0.4148531559623746E-32
   0.1028222183338735E+01
   0.3282075286109396E-32
   0.1014640520410228E+01
  -0.1077374343572563E-32
   0.1028986926999345E+01
  -0.6003582651262370E-33
   0.1002003667365962E+01
  -0.2310346683938425E-32
   0.9608147831457753E+00
  -0.4501963319572048E-31
   0.1006858072237086E+01
  -0.3902831515798951E-32
   0.1001324898680466E+01
  -0.6150470393919076E-32
   0.1010798261832903E+01
  -0.1808667002644603E-32
   0.1012231336352155E+01
  -0.4506438058578490E-32
   0.1000939569587518E+01
  -0.4606092870224272E-32
   0.9979357843525328E+00
  -0.4919484581849845E-32
   0.9980690509294101E+00
  -0.4007942345109460E-32
   0.1001192040826553E+01
  -0.4325793841806357E-32
   0.9842100790524386E+00
  -0.2063385649768987E-31
   0.9815228436094171E+00
  -0.1482315510282239E-31
   0.9648740509475567E+00
  -0.4544621316433112E-31
   0.9680944437803340E+00
  -0.4916616531811864E-31
   0.9914084286456322E+00
  -0.1964540593668882E-31
   0.9910913083038603E+00
  -0.6075834772326135E-32
   0.9925587124656207E+00
  -0.5687696656539437E-32
   0.1001727549514233E+01
  -0.3481299507691622E-32
   0.9993245747401808E+00
  -0.3737737065502659E-32
   0.9941434371395509E+00
  -0.5613620727469123E-32
   0.1006982475141324E+01
   0.4508119333626735E-33
   0.1022613019618603E+01
   0.5287019105792187E-32
   0.1001120639139638E+01
  -0.2122940711000533E-31
   0.1008783935583392E+01
  -0.3685080454026893E-32
   0.1004774772921344E+01
  -0.4072051134085006E-32
   0.1009030410930874E+01
  -0.2869757155116069E-32
   0.9967211493815418E+00
  -0.5974089307694337E-32
   0.1005570715442227E+01
  -0.2353997790962768E-32
   0.1003324760114178E+01
  -0.5026552628044504E-32
   0.9949845984908298E+00
  -0.3836814975579712E-32
   0.9833501663083257E+00
  -0.8756224906690527E-32
   0.9944494689142898E+00
  -0.5033881905316328E-32
   0.9973474193053224E+00
  -0.3733713113602176E-32
   0.9932503760541574E+00
  -0.5536561435211397E-32
   0.1001311884906843E+01
  -0.4117497181812371E-32
   0.1003000708376213E+01
  -0.4469764518444925E-32
   0.1002188291593117E+01
  -0.4060306524266825E-32
   0.9947120026401666E+00
  -0.3102673713553532E-32
   0.9937832198057096E+00
  -0.3583557996764384E-32
   0.1004861704668894E+01
  -0.4838299752644016E-32
   0.1020101282070695E+01
  -0.6998556989667003E-32
   0.1005337229999312E+01
  -0.1030188644095029E-31
   0.9817045977666795E+00
  -0.1686943164006146E-31
   0.1004974596061815E+01
  -0.4655042187708393E-32
   0.1012374662656399E+01
  -0.2246194924226142E-32
   0.9873720328709690E+00
  -0.2688580032298716E-31
   0.9551284413725040E+00
  -0.1184411974502955E-32
   0.9865253756902151E+00
  -0.1926656606754393E-31
   0.9865916534802196E+00
  -0.1248923016844085E-31
   0.9920067167869605E+00
  -0.4788190534520071E-31
   0.9934435620808152E+00
  -0.2361984992857505E-31
   0.9960682553857634E+00
  -0.5866037925489993E-31
   0.1037400105928137E+01
  -0.1613050100983898E-31
   0.1033161102224295E+01
  -0.7995237093246245E-32
   0.1001442942589832E+01
  -0.2749511700058398E-32
   0.1001928635177601E+01
  -0.4777727549384074E-32
   0.9912313107685400E+00
  -0.3043420266978862E-32
   0.9911145322898102E+00
  -0.8045922543909819E-32
   0.9649433996998151E+00
  -0.1821598902236310E-31
   0.9933790316917671E+00
  -0.4469841902461725E-32
   0.1006090796374751E+01
  -0.4566684157948962E-33
   0.1001963018637757E+01
  -0.1176964971886670E-32
   0.9908628976459802E+00
  -0.6794531715924135E-32
   0.9742169955168202E+00
  -0.1689458633100157E-31
   0.9420656172337410E+00
  -0.3347032169496767E-31
   0.9821543954947485E+00
  -0.2440251757146680E-31
   0.9794783302235193E+00
  -0.1144631609975528E-31
   0.9704368616041221E+00
  -0.1548709859953467E-31
   0.9720887189878853E+00
  -0.3528336199766138E-31
   0.9557898414997702E+00
  -0.1215020782924338E-31
   0.9498086706711191E+00
  -0.3122557753827781E-31
   0.9529904616790146E+00
  -0.4051517420246810E-31
   0.1002635788495220E+01
  -0.3554145201930477E-32
   0.1002475631460719E+01
  -0.4746864120775767E-32
   0.1000513073316604E+01
  -0.3039991074582631E-32
   0.1001674838577965E+01
  -0.1517752672963348E-32
   0.9610035232182513E+00
  -0.3574722347273903E-31
   0.9492443247445717E+00
  -0.6631866395239923E-31
   0.9586632960130438E+00
  -0.3154410829332371E-31
   0.1001121360678570E+01
  -0.4384674914551997E-32
   0.1000501199843908E+01
  -0.3466182280002919E-32
   0.1001159801540520E+01
  -0.2027848401324534E-32
   0.9807420384794842E+00
  -0.1683753322219771E-31
   0.9805568735449591E+00
  -0.2124757813451602E-31
   0.9629217552733312E+00
  -0.2912348115185281E-31
SCALARS u double 1
LOOKUP_TABLE default
   0.0000000000000000E+00
   0.0000000000000000E+00
   0.0000000000000000E+00
   0.0000000000000000E+00
   0.0000000000000000E+00
   0.0000000000000000E+00
   0.0000000000000000E+00
   0.0000000000000000E+00
   0.0000000000000000E+00
   0.0000000000000000E+00
   0.0000000000000000E+00
   0.0000000000000000E+00
   0.0000000000000000E+00
   0.0000000000000000E+00
   0.0000000000000000E+00
   0.0000000000000000E+00
   0.0000000000000000E+00
   0.0000000000000000E+00
   0.0000000000000000E+00
   0.0000000000000000E+00
   0.0000000000000000E+00
   0.0000000000000000E+00
   0.0000000000000000E+00
   0.0000000000000000E+00
   0.0000000000000000E+00
   0.0000000000000000E+00
   0.0000000000000000E+00
   0.0000000000000000E+00
   0.0000000000000000E+00
   0.0000000000000000E+00
   0.0000000000000000E+00
   0.0000000000000000E+00
   0.0000000000000000E+00
   0.0000000000000000E+00
   0.0000000000000000E+00
   0.0000000000000000E+00
   0.0000000000000000E+00
   0.0000000000000000E+00
   0.0000000000000000E+00
   0.0000000000000000E+00
   0.0000000000000000E+00
   0.0000000000000000E+00
   0.0000000000000000E+00
   0.0000000000000000E+00
   0.0000000000000000E+00
   0.0000000000000000E+00
   0.0000000000000000E+00
   0.0000000000000000E+00
   0.0000000000000000E+00
   0.0000000000000000E+00
   0.0000000000000000E+00
   0.0000000000000000E+00
   0.0000000000000000E+00
   0.0000000000000000E+00
   0.0000000000000000E+00
   0.0000000000000000E+00
   0.0000000000000000E+00
   0.0000000000000000E+00
   0.0000000000000000E+00
   0.0000000000000000E+00
   0.0000000000000000E+00
   0.0000000000000000E+00
   0.0000000000000000E+00
   0.0000000000000000E+00
   0.0000000000000000E+00
   0.0000000000000000E+00
   0.4945973678191318E+00
  -0.2504829235222711E-31
   0.5336248050513324E+00
  -0.9236851730340078E-32
   0.5182740404555684E+00
  -0.3131483449324719E-32
   0.4930714246731157E+00
  -0.7165179880155932E-34
   0.4847754205068113E+00
   0.8344630987542115E-32
   0.4868132653368215E+00
   0.1285698876180014E-31
   0.4891430744281529E+00
   0.1140475663005328E-31
   0.4958009013999769E+00
   0.1942068248339031E-32
   0.4899007394802737E+00
   0.6904916737030128E-32
   0.4718072596334873E+00
   0.2271036804391055E-33
   0.4448872821972464E+00
  -0.4956103621071656E-32
   0.4844369958684877E+00
   0.5356577074400287E-31
   0.5097703333340354E+00
  -0.6426189915050336E-33
   0.4401859475313121E+00
   0.9160613317108065E-31
   0.4949587097188839E+00
   0.5818838759602763E-32
   0.5223003573209556E+00
  -0.5215053814419551E-32
   0.4962747030736136E+00
   0.2729569511871755E-32
   0.5223832221991094E+00
  -0.1083581751455942E-31
   0.5038168244758457E+00
   0.3053100861193488E-32
   0.5644336963923184E+00
  -0.3176430941859747E-32
   0.5245894641994285E+00
  -0.3418081111450110E-32
   0.4990985097736165E+00
   0.3634257714450628E-32
   0.5729201586902855E+00
   0.1632419739396215E-31
   0.5693592828694007E+00
  -0.6388170621431193E-33
   0.3752192377624783E+00
   0.9373934444438747E-31
   0.4003638955709218E+00
   0.6331490707570900E-31
   0.5599389981226892E+00
   0.3108858722876512E-31
   0.5562259014215660E+00
  -0.1472839320324505E-32
   0.4942640825316480E+00
  -0.1222787773585267E-32
   0.4948651958954746E+00
  -0.2349173389995897E-32
   0.4925619071367976E+00
  -0.3794230703645122E-32
   0.4913967782806881E+00
  -0.2316317205165066E-32
   0.5162597182184234E+00
  -0.6606830990435676E-33
   0.5363670730383608E+00
   0.5455266760769230E-32
   0.4951374106576641E+00
  -0.4948570919584684E-32
   0.4520512890331537E+00
  -0.3405761287692056E-31
   0.5129007652647601E+00
  -0.1329507138168169E-32
   0.5117699763446049E+00
  -0.2587057284964261E-32
   0.4786317418659912E+00
  -0.1180539022949769E-31
   0.4931122297850094E+00
  -0.3456660405417633E-31
   0.4600270411490989E+00
  -0.7818836365226118E-31
   0.5242595707294535E+00
  -0.2535997455450419E-31
   0.5299947205782733E+00
  -0.3418880542332726E-32
   0.5129700677652813E+00
  -0.4540292825738873E-32
   0.5328928660743326E+00
   0.1345097616548784E-32
   0.5309782654292725E+00
   0.3326784814294883E-32
   0.5309767611424759E+00
  -0.2767224483386014E-32
   0.5063651340503861E+00
  -0.4150532168834036E-32
   0.5279536185346444E+00
  -0.1519666599470341E-31
   0.5409238855073258E+00
  -0.4821857932718624E-32
   0.5363719066788125E+00
  -0.1521202303101874E-31
   0.5374201319950864E+00
  -0.6352637726173107E-32
   0.4965358979110484E+00
   0.7786763258723558E-33
   0.4975364856908065E+00
   0.6560542187527552E-33
   0.4963815197052247E+00
   0.2131812755015380E-32
   0.4955155009819245E+00
   0.1995631031739784E-32
   0.4904172548498059E+00
   0.9747507025441864E-32
   0.4902500217795117E+00
   0.1083628038101568E-31
   0.4861611309726678E+00
   0.5924017141665723E-32
   0.4854067564177045E+00
   0.5624927658083384E-32
   0.4931955989645561E+00
   0.7482049804315945E-32
   0.4910329667939681E+00
   0.9829446132854586E-32
   0.4831677513608772E+00
   0.2548206511947981E-32
   0.4872468806484129E+00
   0.3596783264676473E-32
   0.4880024273791759E+00
   0.3472703706117702E-32
   0.4872312392880040E+00
   0.8902589680260774E-32
   0.4882163845924753E+00
   0.1067925974251319E-31
   0.4952576817170738E+00
   0.6042559206279819E-32
   0.4900721164411282E+00
   0.1213855369671134E-31
   0.4903599279046131E+00
   0.1135215444930590E-31
   0.4944353026095721E+00
   0.8087373028369926E-32
   0.4868191758702435E+00
   0.1037965003670879E-31
   0.4892735512144608E+00
   0.1174742200639656E-31
   0.4881467930726744E+00
   0.1259425514061491E-31
   0.4878252396080922E+00
   0.1050169736070215E-31
   0.4449106780027509E+00
  -0.4106865088432915E-32
   0.4700132875184995E+00
  -0.1581892025082245E-32
   0.4891774917471576E+00
   0.3421855522283862E-32
   0.4885974634682679E+00
   0.8942147614979651E-32
   0.4510294628034820E+00
   0.3546074956291699E-31
   0.4681803399583855E+00
  -0.1277131499774109E-31
   0.4876666907156769E+00
   0.5616064939444597E-32
   0.4868262750091020E+00
   0.8284803544750254E-32
   0.4909268404137006E+00
   0.6382839309178884E-32
   0.4793945543460200E+00
   0.6164714038381226E-32
   0.4657906777213863E+00
  -0.3733537107615463E-32
   0.3794391075096474E+00
   0.3591395937843573E-31
   0.4903637343848280E+00
  -0.4087918844390495E-31
   0.4487969161866972E+00
  -0.1380697374573442E-31
   0.4432386725517261E+00
   0.1236230127017675E-31
   0.4845716407443429E+00
   0.3620966516927593E-32
   0.4621867851108185E+00
  -0.6554410382100161E-32
   0.4663606659234847E+00
  -0.3098489766727226E-31
   0.4747787029547938E+00
   0.2523104931570346E-32
   0.4893811124179783E+00
   0.5096341486858021E-31
   0.5085638676813679E+00
  -0.3638397143175710E-33
   0.4305372591507592E+00
   0.4073420037688847E-31
   0.4927298036614620E+00
   0.4985705779048794E-32
   0.5320327256123858E+00
  -0.5116825082754996E-32
   0.4913855406343017E+00
   0.9644274824895931E-33
   0.5209473688353805E+00
  -0.2235583209660601E-32
   0.5061309364999785E+00
   0.1672406274807046E-32
   0.5690650993919021E+00
   0.1122597436231913E-31
   0.5274990552036551E+00
   0.4059359830062295E-33
   0.5015024129571737E+00
   0.3365585923028161E-32
   0.5821782454631182E+00
   0.3581008170288633E-31
   0.5691769250212060E+00
   0.1983272896923846E-31
   0.3403300368287364E+00
   0.1004088410568531E-30
   0.3786151439693309E+00
  -0.1186138850389647E-31
   0.5753346481750896E+00
   0.5551210736170452E-31
   0.5668543263573821E+00
   0.9988071572855856E-32
   0.5703059562536263E+00
  -0.4924338389911275E-32
   0.5291879205953214E+00
  -0.8599422929968657E-32
   0.5449837175767392E+00
  -0.1358203269016399E-31
   0.5719102639589678E+00
   0.7506933489703596E-32
   0.5385667386742117E+00
  -0.2199660891785694E-31
   0.5475905556229864E+00
   0.2252602991630484E-31
   0.5821515963413826E+00
   0.3436940404599372E-31
   0.4925318968536214E+00
  -0.6088729019243196E-32
   0.5041571115926038E+00
   0.1075816311018969E-32
   0.4961293265019153E+00
  -0.2294776493537798E-32
   0.5562736233265463E+00
   0.4200941363270596E-32
   0.4757837005646447E+00
  -0.3959292140834934E-31
   0.4950183184506385E+00
   0.6361811820400464E-32
   0.5496188055878043E+00
  -0.7029316436254104E-32
   0.5889517159317297E+00
   0.2028614299349565E-31
   0.5839552612739061E+00
   0.1370331147159152E-32
   0.5468175663611088E+00
  -0.4319130902336423E-32
   0.5803880219191898E+00
   0.9789053891418076E-33
   0.5106065646599162E+00
  -0.1881479055525787E-32
   0.5029552653040364E+00
   0.7252677027524009E-33
   0.5033112976890541E+00
   0.1002294883869290E-32
   0.5676222186353662E+00
   0.1966978278352180E-32
   0.5564619505294742E+00
  -0.1970106838280806E-32
   0.4947144959330517E+00
   0.2845423769670322E-32
   0.5506785365921127E+00
  -0.1676775483402509E-31
   0.5513581031285106E+00