title="tecplot geometry and solution file"
variables = x y z rho u v w p mach temperature
zone t="boundary 1 bc-1", solutiontime= 0.3000000E+02, strandid=1001, i=32, j=46, f=feblock
 -0.547468544169E-02 -0.347954801358E-20 -0.567606031243E-02 -0.347954801358E-20 -0.347954801358E-20 -0.347954801358E-20 -0.525159244851E-02
 -0.425776897977E-02 -0.347954801358E-20 -0.347954801358E-20 -0.347954801358E-20 -0.347954801358E-20 -0.347954801358E-20 -0.347954801358E-20
 -0.347954801358E-20 -0.347954801358E-20 -0.338395986572E-02 -0.347954801358E-20 -0.347954801358E-20 -0.347954801358E-20 -0.347954801358E-20
 -0.347954801358E-20 -0.347954801358E-20 -0.347954801358E-20 -0.347954801358E-20 -0.347954801358E-20 -0.347954801358E-20 -0.347954801358E-20
 -0.347954801358E-20 -0.347954801358E-20 -0.347954801358E-20 -0.347954801358E-20
  0.250494197117E+01  0.250494197117E+01  0.127822156907E+01  0.146289271009E+01  0.157686156160E+01  0.308372018325E+00  0.261948602442E-01
 -0.122573481164E+01 -0.600232012419E+00  0.250494197117E+01  0.477386199275E+00  0.742988685424E+00 -0.739814786992E+00  0.177790177481E+01
  0.155830813274E+01  0.250494197117E+01 -0.249658903664E+01 -0.154800130438E+01 -0.487811078581E+00  0.250494197117E+01  0.627766083140E+00
 -0.345533899378E+00 -0.178862290564E+01 -0.158811787973E+01  0.125000000000E+01 -0.249658903664E+01 -0.144524380962E+01 -0.347954801358E-20
 -0.125000000000E+01 -0.249658903664E+01 -0.249658903664E+01 -0.249658903664E+01
  0.803813859867E-04  0.125000000000E+01  0.822460170215E-04  0.103724302461E+01  0.219251206392E+01  0.922061490191E+00  0.103872438719E-03
  0.341545874230E-04  0.715990576545E+00  0.250000000000E+01  0.202479342020E+01  0.324151231464E+01  0.175434191980E+01  0.310152362409E+01
  0.404200324774E+01  0.375000000000E+01  0.810725962649E-04  0.930412228790E+00  0.299062775774E+01  0.500000000000E+01  0.429310310915E+01
  0.409252726285E+01  0.187029682677E+01  0.284428995242E+01  0.500000000000E+01  0.125000000000E+01  0.394624082883E+01  0.500000000000E+01
  0.500000000000E+01  0.250000000000E+01  0.375000000000E+01  0.500000000000E+01
  0.134610807213E+01  0.106375488485E+01  0.142661152837E+01  0.108602633148E+01  0.103229694702E+01  0.120170155847E+01  0.164672928390E+01
  0.149542018670E+01  0.123512288300E+01  0.102386897567E+01  0.102822162284E+01  0.101305342228E+01  0.103253530519E+01  0.101467169183E+01
  0.100662662242E+01  0.100826795239E+01  0.144847502630E+01  0.116396707120E+01  0.101463996349E+01  0.100424962882E+01  0.100679614695E+01
  0.100725138980E+01  0.104656487909E+01  0.101934023761E+01  0.100423957605E+01  0.106448525526E+01  0.100790667837E+01  0.100288574895E+01
  0.100334986492E+01  0.102844157104E+01  0.100960554552E+01  0.100399815428E+01
  0.000000000000E+00  0.444887873341E+00  0.000000000000E+00  0.468180239004E+00  0.462187457102E+00  0.443239155427E+00  0.000000000000E+00
  0.000000000000E+00  0.379439480339E+00  0.471807689101E+00  0.466361413721E+00  0.479395116695E+00  0.490363832574E+00  0.484572110909E+00
  0.488597092338E+00  0.489901386147E+00  0.000000000000E+00  0.451030384693E+00  0.474779411421E+00  0.495801249811E+00  0.490926753601E+00
  0.486826466945E+00  0.448797498060E+00  0.465791404761E+00  0.496536239816E+00  0.444910437345E+00  0.487666752742E+00  0.497536739585E+00
  0.496381588639E+00  0.470013807932E+00  0.489177810368E+00  0.495515591851E+00
  0.000000000000E+00  0.000000000000E+00  0.000000000000E+00  0.182112289218E-01 -0.276670299197E-02  0.330007168349E-01  0.000000000000E+00
  0.000000000000E+00 -0.635894375417E-02  0.000000000000E+00  0.362933265880E-02 -0.561328203847E-02 -0.432762950058E-02  0.439860952486E-04
 -0.103537551555E-02  0.000000000000E+00  0.000000000000E+00 -0.779183510618E-02  0.391813232823E-03  0.000000000000E+00 -0.202812573692E-02
 -0.137704415848E-02  0.151649476034E-02 -0.162047303544E-02 -0.661799994524E-04  0.000000000000E+00 -0.290997103255E-04 -0.202416492243E-03
  0.805477254670E-03  0.000000000000E+00  0.000000000000E+00  0.000000000000E+00
  0.000000000000E+00  0.453286493605E-01  0.000000000000E+00  0.123658405406E+00  0.245691877628E-01  0.166125753504E+00  0.000000000000E+00
  0.000000000000E+00  0.155959923283E+00  0.352699397580E-02  0.259079548002E-01 -0.647808062092E-02  0.752820086407E-01  0.371562284529E-02
 -0.127629241339E-03  0.471082135985E-03  0.000000000000E+00  0.141096846570E+00 -0.806998785011E-02  0.236416351131E-02 -0.280159953526E-03
 -0.438297203103E-02  0.256771039357E-01 -0.189361683395E-02  0.307388559742E-02  0.838610982537E-01 -0.122859412553E-02  0.268465463397E-02
  0.264399541707E-02  0.283397765863E-02 -0.846807583592E-03  0.345589304595E-02
  0.961496439549E+00  0.782490697724E+00  0.101899882158E+01  0.808635488403E+00  0.746112819419E+00  0.879959461554E+00  0.117622511134E+01
  0.106814891368E+01  0.916483883280E+00  0.737374786910E+00  0.743650490476E+00  0.725792319660E+00  0.757478938772E+00  0.729144048286E+00
  0.720777139618E+00  0.722746831728E+00  0.103461749105E+01  0.858092536497E+00  0.728072056478E+00  0.718602390944E+00  0.721011957360E+00
  0.721153878974E+00  0.759933628692E+00  0.732618004197E+00  0.718521623273E+00  0.790948459435E+00  0.722117720452E+00  0.717197249798E+00
  0.717641777414E+00  0.741773000032E+00  0.724071465004E+00  0.718406393153E+00
  0.000000000000E+00  0.440666822971E+00  0.000000000000E+00  0.474617127316E+00  0.460123825489E+00  0.468637221097E+00  0.000000000000E+00
  0.000000000000E+00  0.402550210475E+00  0.469884566768E+00  0.464194251202E+00  0.478750223623E+00  0.489549625168E+00  0.483129182002E+00
  0.488001946475E+00  0.489034765980E+00  0.000000000000E+00  0.465241410477E+00  0.473761248961E+00  0.495364691346E+00  0.490293344357E+00
  0.486277826464E+00  0.445855125095E+00  0.464359633417E+00  0.496128303825E+00  0.443900179466E+00  0.486930153513E+00  0.497249000103E+00
  0.496056016112E+00  0.467744612685E+00  0.488189606361E+00  0.495091228141E+00
  0.999990300362E+00  0.102983026674E+01  0.999990762612E+00  0.104241458144E+01  0.101187739652E+01  0.102516572229E+01  0.999991420552E+00
  0.999992171067E+00  0.103882573488E+01  0.100825860164E+01  0.101253529739E+01  0.100301645025E+01  0.102705496746E+01  0.100604133911E+01
  0.100244516983E+01  0.100354827506E+01  0.999992724186E+00  0.103209925850E+01  0.100459366449E+01  0.100178612812E+01  0.100260290364E+01
  0.100234702160E+01  0.101657059340E+01  0.100620496281E+01  0.100168355896E+01  0.104024723475E+01  0.100303414029E+01  0.100118697545E+01
  0.100134412083E+01  0.100976295522E+01  0.100405554972E+01  0.100176374441E+01
        12        19        11        11
        11         5        12        12
        10        14         5         5
        19        13        11        11
        19        24        13        13
        30        23        24        24
        19        12        22        22
        28        22        21        21
        11        13         6         6
         7         6         9         9
        15        12        14        14
        18        13        23        23
        15        25        21        21
        27        19        22        22
        18         8         9         9
        27        31        24        24
         4        11         6         6
         5        14        12        12
         4         2         5         5
        21        12        15        15
        14        16        15        15
        24        19        27        27
        22        29        27        27
        23        26        18        18
        17         8        18        18
         5        11         4         4
         6         3         4         4
        26        23        30        30
         5         2        10        10
        16        14        10        10
         3         6         7         7
        21        25        28        28
        29        22        28        28
         6        13         9         9
         2         4         1         1
        31        27        32        32
        25        15        20        20
        24        23        13        13
         8         7         9         9
        13        18         9         9
        31        30        24        24
        12        21        22        22
        29        32        27        27
         3         1         4         4
        26        17        18        18
        16        20        15        15
zone t="boundary 2 bc-2", solutiontime= 0.3000000E+02, strandid=1002, i=33, j=48, f=feblock
  0.500195253374E+01  0.375034811161E+01  0.249861146299E+01  0.288036674177E+01  0.124717526933E+01  0.190856698521E+01  0.326577190273E+01
  0.201394856120E+01 -0.338395986572E-02  0.962374249381E+00  0.500000000000E+01  0.403430190008E+01  0.423029563807E+01  0.500000000000E+01
  0.385439188940E+01  0.500000000000E+01  0.398133433176E+01  0.315200081417E+01  0.266958028869E+01  0.154798029824E+01  0.218327860466E+01
  0.893688440338E+00 -0.347954801358E-20  0.699009761768E+00  0.964460899052E+00  0.310303671659E+01 -0.347954801358E-20 -0.347954801358E-20
  0.125000000000E+01  0.500000000000E+01  0.375000000000E+01  0.250000000000E+01 -0.347954801358E-20
 -0.249658903664E+01 -0.249658903664E+01 -0.249658903664E+01 -0.249658903664E+01 -0.249658903664E+01 -0.249658903664E+01 -0.249658903664E+01
 -0.249658903664E+01 -0.249658903664E+01 -0.249658903664E+01 -0.249658903664E+01 -0.249658903664E+01 -0.249658903664E+01 -0.249658903664E+01
 -0.249658903664E+01 -0.249658903664E+01 -0.249658903664E+01 -0.249658903664E+01 -0.249658903664E+01 -0.249658903664E+01 -0.249658903664E+01
 -0.249658903664E+01 -0.249658903664E+01 -0.249658903664E+01 -0.249658903664E+01 -0.249658903664E+01 -0.249658903664E+01 -0.249658903664E+01
 -0.249658903664E+01 -0.249658903664E+01 -0.249658903664E+01 -0.249658903664E+01 -0.249658903664E+01
  0.108225889030E-03  0.145875369682E-03  0.100893326425E-03  0.901663374396E+00  0.110858761917E-03  0.714928318829E+00  0.188140648011E+01
  0.175892165504E+01  0.810725962649E-04  0.957504300331E+00  0.125000000000E+01  0.100596698996E+01  0.191313519089E+01  0.250000000000E+01
  0.292898096716E+01  0.375000000000E+01  0.406883369524E+01  0.363389289944E+01  0.284756860985E+01  0.292582308120E+01  0.395754054931E+01
  0.205027256979E+01  0.125000000000E+01  0.306703272692E+01  0.397155766662E+01  0.433068622168E+01  0.250000000000E+01  0.375000000000E+01
  0.500000000000E+01  0.500000000000E+01  0.500000000000E+01  0.500000000000E+01  0.500000000000E+01
  0.831048607063E+00  0.935354707145E+00  0.934389202960E+00  0.968093999337E+00  0.961616141207E+00  0.964873802310E+00  0.984209580565E+00
  0.991408121979E+00  0.144847502630E+01  0.102898647851E+01  0.956112403797E+00  0.960815455024E+00  0.981522533693E+00  0.100650763007E+01
  0.997935519759E+00  0.100981783783E+01  0.100200416617E+01  0.998068419554E+00  0.991090992852E+00  0.100132441886E+01  0.100093907662E+01
  0.101223091219E+01  0.106448525526E+01  0.101079762898E+01  0.100685748184E+01  0.100119129732E+01  0.102844157104E+01  0.100960554552E+01
  0.100511486651E+01  0.100179139707E+01  0.100266693137E+01  0.100322279756E+01  0.100399815428E+01
  0.000000000000E+00  0.000000000000E+00  0.000000000000E+00  0.378614953299E+00  0.000000000000E+00  0.340330255140E+00  0.582177974334E+00
  0.575334950194E+00  0.000000000000E+00  0.489381449573E+00  0.495136477911E+00  0.430537089534E+00  0.569175999171E+00  0.536367167864E+00
  0.569065982291E+00  0.516260832917E+00  0.508569174491E+00  0.527501694040E+00  0.566854818659E+00  0.532033415811E+00  0.506133343023E+00
  0.520947699497E+00  0.444910437345E+00  0.491386216744E+00  0.492730511326E+00  0.501505692741E+00  0.470013807932E+00  0.489177810368E+00
  0.490417874889E+00  0.491395725723E+00  0.486158645366E+00  0.490251361017E+00  0.495515591851E+00
  0.000000000000E+00  0.000000000000E+00  0.000000000000E+00  0.000000000000E+00  0.000000000000E+00  0.000000000000E+00  0.000000000000E+00
  0.000000000000E+00  0.000000000000E+00  0.000000000000E+00  0.000000000000E+00  0.000000000000E+00  0.000000000000E+00  0.000000000000E+00
  0.000000000000E+00  0.000000000000E+00  0.000000000000E+00  0.000000000000E+00  0.000000000000E+00  0.000000000000E+00  0.000000000000E+00
  0.000000000000E+00  0.000000000000E+00  0.000000000000E+00  0.000000000000E+00  0.000000000000E+00  0.000000000000E+00  0.000000000000E+00
  0.000000000000E+00  0.000000000000E+00  0.000000000000E+00  0.000000000000E+00  0.000000000000E+00
  0.000000000000E+00  0.000000000000E+00  0.000000000000E+00 -0.232901178218E-02  0.000000000000E+00  0.182354740336E-01  0.121237808244E-01
  0.453891585183E-01  0.000000000000E+00  0.867493867101E-01 -0.992585236392E-01 -0.210123283619E-01 -0.304690488846E-01 -0.412642031761E-01
 -0.131904355455E-02  0.270132936005E-02  0.638007542945E-03  0.536001124923E-03  0.151138499063E-01  0.283972546229E-01  0.565028164548E-02
  0.553959523842E-01  0.838610982537E-01  0.110561116976E-01  0.679094314089E-02 -0.740861891021E-03  0.283397765863E-02 -0.846807583592E-03
  0.399670383206E-02  0.605903951603E-02 -0.134901873245E-03  0.119825155825E-02  0.345589304595E-02
  0.593602282627E+00  0.668106289956E+00  0.667416550550E+00  0.684291138547E+00  0.686863959721E+00  0.679258143228E+00  0.695863861039E+00
  0.702291322542E+00  0.103461749105E+01  0.723389458297E+00  0.672789297049E+00  0.675870463317E+00  0.694123785824E+00  0.721037879884E+00
  0.712711192894E+00  0.724813426239E+00  0.716594810711E+00  0.713312072751E+00  0.706427493866E+00  0.717740969131E+00  0.715380161640E+00
  0.730906312691E+00  0.790948459435E+00  0.724365235280E+00  0.721016872433E+00  0.715470742843E+00  0.741773000032E+00  0.724071465004E+00
  0.719321630257E+00  0.715893093430E+00  0.716613093006E+00  0.717376273267E+00  0.718406393153E+00
  0.000000000000E+00  0.000000000000E+00  0.000000000000E+00  0.380610063644E+00  0.000000000000E+00  0.343302454350E+00  0.585285219350E+00
  0.579524284047E+00  0.000000000000E+00  0.500980114262E+00  0.508781790064E+00  0.434361597343E+00  0.572843005762E+00  0.537166713615E+00
  0.569107389474E+00  0.515014562556E+00  0.508258079601E+00  0.527351802562E+00  0.567655836161E+00  0.531858587146E+00  0.506014972539E+00
  0.521051522349E+00  0.443900179466E+00  0.490706896696E+00  0.492150542763E+00  0.501389132626E+00  0.467744612685E+00  0.488189606361E+00
  0.489962659308E+00  0.491320551787E+00  0.486015353011E+00  0.489983301251E+00  0.495091228141E+00
  0.999993488485E+00  0.999993690942E+00  0.999993544242E+00  0.989581171478E+00  0.999993139053E+00  0.985581117699E+00  0.989839384509E+00
  0.991728663263E+00  0.999992724186E+00  0.984216277633E+00  0.985140462700E+00  0.984807898017E+00  0.990067234114E+00  0.100292635811E+01
  0.999859860979E+00  0.100487311545E+01  0.100122611149E+01  0.100056958249E+01  0.997888688874E+00  0.100350829148E+01  0.100059259319E+01
  0.101090455294E+01  0.104024723475E+01  0.100327830252E+01  0.100254866216E+01  0.100046718611E+01  0.100976295522E+01  0.100405554972E+01
  0.100192556683E+01  0.100045811307E+01  0.100058982582E+01  0.100110043852E+01  0.100176374441E+01
        15         7        19        19
         8        20        19        19
        18        19        21        21
         7         4         8         8
         3         6         4         4
        19         7         8         8
        19        18        15        15
        14        13        15        15
         8        22        20        20
        27        24        22        22
        19        20        21        21
        32        26        21        21
        17        18        26        26
        17        16        15        15
        25        29        21        21
        12         7        13        13
        10         8         6         6
        25        20        24        24
         4         6         8         8
        12         2         4         4
        10        23        22        22
        26        31        17        17
        30        16        17        17
         4         7        12        12
        13        11        12        12
        21        20        25        25
        24        28        25        25
        22         8        10        10
         6         5        10        10
        31        26        32        32
         4         2         3         3
         5         6         3         3
        11        13        14        14
        22        23        27        27
        28        24        27        27
        15        13         7         7
         2        12         1         1
        29        25        33        33
        23        10         9         9
        21        26        18        18
        16        14        15        15
        18        17        15        15
        29        32        21        21
        22        24        20        20
        28        33        25        25
        11         1        12        12
        31        30        17        17
         5         9        10        10
zone t="boundary 3 bc-3", solutiontime= 0.3000000E+02, strandid=1003, i=33, j=48, f=feblock
  0.375059096892E+01  0.249769609313E+01  0.500322133174E+01  0.403612218725E+01  0.287976772365E+01  0.124541910518E+01  0.190552237404E+01
  0.500000000000E+01  0.326671104552E+01  0.423253755448E+01  0.201271136506E+01 -0.547468544169E-02  0.958895643487E+00  0.500000000000E+01
  0.266968147299E+01  0.385584487271E+01  0.890374214836E+00  0.154654013699E+01 -0.347954801358E-20  0.500000000000E+01  0.315261136744E+01
  0.218304199515E+01  0.398195307895E+01 -0.347954801358E-20  0.697379952124E+00  0.963757277315E+00  0.125000000000E+01 -0.347954801358E-20
  0.500000000000E+01  0.310330738524E+01  0.250000000000E+01  0.375000000000E+01 -0.347954801358E-20
  0.250494197117E+01  0.250494197117E+01  0.250494197117E+01  0.250494197117E+01  0.250494197117E+01  0.250494197117E+01  0.250494197117E+01
  0.250494197117E+01  0.250494197117E+01  0.250494197117E+01  0.250494197117E+01  0.250494197117E+01  0.250494197117E+01  0.250494197117E+01
  0.250494197117E+01  0.250494197117E+01  0.250494197117E+01  0.250494197117E+01  0.250494197117E+01  0.250494197117E+01  0.250494197117E+01
  0.250494197117E+01  0.250494197117E+01  0.250494197117E+01  0.250494197117E+01  0.250494197117E+01  0.250494197117E+01  0.250494197117E+01
  0.250494197117E+01  0.250494197117E+01  0.250494197117E+01  0.250494197117E+01  0.250494197117E+01
  0.135649900494E-03  0.110129816467E-03  0.966887303890E-04  0.101756752009E+01  0.908094589218E+00  0.103942505801E-03  0.722629083213E+00
  0.125000000000E+01  0.188965661746E+01  0.191862696980E+01  0.176708239098E+01  0.803813859867E-04  0.969652551954E+00  0.250000000000E+01
  0.285339433501E+01  0.293325058812E+01  0.205656223819E+01  0.293157016932E+01  0.125000000000E+01  0.375000000000E+01  0.363766838842E+01
  0.396069444983E+01  0.407056385475E+01  0.250000000000E+01  0.307031995245E+01  0.397359820314E+01  0.500000000000E+01  0.375000000000E+01
  0.500000000000E+01  0.433260781310E+01  0.500000000000E+01  0.500000000000E+01  0.500000000000E+01
  0.942171919667E+00  0.946116627286E+00  0.843607602101E+00  0.964583382741E+00  0.979034805510E+00  0.957203465381E+00  0.983413110850E+00
  0.963705946699E+00  0.982803435135E+00  0.984390423415E+00  0.990475030231E+00  0.134610807213E+01  0.101939376552E+01  0.100835478928E+01
  0.993518813340E+00  0.998018515054E+00  0.100803747469E+01  0.100074516007E+01  0.106375488485E+01  0.100671366743E+01  0.100059200606E+01
  0.100235312778E+01  0.100177896731E+01  0.102386897567E+01  0.100869608369E+01  0.100526283451E+01  0.100520746765E+01  0.100826795239E+01
  0.100195691155E+01  0.100162020674E+01  0.100411957035E+01  0.100321547374E+01  0.100424962882E+01
  0.000000000000E+00  0.000000000000E+00  0.000000000000E+00  0.440183543318E+00  0.400362966849E+00  0.000000000000E+00  0.375219243141E+00
  0.494590724701E+00  0.572920251368E+00  0.569357430736E+00  0.559939701766E+00  0.000000000000E+00  0.484437272666E+00  0.533625200544E+00
  0.556226347806E+00  0.564433733813E+00  0.522383763360E+00  0.522300971970E+00  0.444887873341E+00  0.518274329970E+00  0.524590256366E+00
  0.503817647817E+00  0.509775434258E+00  0.471807689101E+00  0.496275312906E+00  0.494958986400E+00  0.489144869173E+00  0.489901386147E+00
  0.493073322010E+00  0.499102250358E+00  0.486817530129E+00  0.484779148813E+00  0.495801249811E+00
  0.000000000000E+00  0.000000000000E+00  0.000000000000E+00  0.000000000000E+00  0.000000000000E+00  0.000000000000E+00  0.000000000000E+00
  0.000000000000E+00  0.000000000000E+00  0.000000000000E+00  0.000000000000E+00  0.000000000000E+00  0.000000000000E+00  0.000000000000E+00
  0.000000000000E+00  0.000000000000E+00  0.000000000000E+00  0.000000000000E+00  0.000000000000E+00  0.000000000000E+00  0.000000000000E+00
  0.000000000000E+00  0.000000000000E+00  0.000000000000E+00  0.000000000000E+00  0.000000000000E+00  0.000000000000E+00  0.000000000000E+00
  0.000000000000E+00  0.000000000000E+00  0.000000000000E+00  0.000000000000E+00  0.000000000000E+00
  0.000000000000E+00  0.000000000000E+00  0.000000000000E+00 -0.226595378748E-01  0.112194374306E-01  0.000000000000E+00  0.181896004396E-01
 -0.100730999854E+00  0.385342180976E-02 -0.389402556715E-01  0.339612190248E-01  0.000000000000E+00  0.656428077074E-01 -0.424632738794E-01
  0.838469344377E-02 -0.653454064672E-02  0.487154816161E-01  0.134266849192E-01  0.453286493605E-01  0.712715410848E-03 -0.734594950045E-03
  0.238427068378E-02  0.838230568437E-03  0.352699397580E-02  0.103003849519E-01  0.427250300010E-02  0.337146407737E-02  0.471082135985E-03
  0.570894480035E-02  0.306158687195E-03  0.160419855306E-02  0.568085782239E-03  0.236416351131E-02
  0.672972772399E+00  0.675790437528E+00  0.602570611483E+00  0.676155378667E+00  0.691392976745E+00  0.683709809593E+00  0.689988268816E+00
  0.677397510695E+00  0.695267586436E+00  0.696328642063E+00  0.703514009969E+00  0.961496439549E+00  0.719945625121E+00  0.722884212405E+00
  0.709495161834E+00  0.713707650714E+00  0.726004736896E+00  0.716613988774E+00  0.782490697724E+00  0.722259063759E+00  0.716132029823E+00
  0.716553207536E+00  0.716541711912E+00  0.737374786910E+00  0.722640101107E+00  0.719421394464E+00  0.719547273182E+00  0.722746831728E+00
  0.716024435675E+00  0.715846769098E+00  0.718136606254E+00  0.717061150025E+00  0.718602390944E+00
  0.000000000000E+00  0.000000000000E+00  0.000000000000E+00  0.444929378110E+00  0.402806920448E+00  0.000000000000E+00  0.379033796776E+00
  0.508812533527E+00  0.575701446284E+00  0.573470267107E+00  0.562548497617E+00  0.000000000000E+00  0.491638150189E+00  0.534337075803E+00
  0.556352706545E+00  0.564140357503E+00  0.522485887378E+00  0.521818385353E+00  0.440666822971E+00  0.517133382569E+00  0.524069147401E+00
  0.503616991132E+00  0.509425509761E+00  0.469884566768E+00  0.495645669664E+00  0.494503664331E+00  0.488632093013E+00  0.489034765980E+00
  0.492988963150E+00  0.498961568235E+00  0.486512196348E+00  0.484617649205E+00  0.495364691346E+00
  0.999989345567E+00  0.999989414891E+00  0.999989632591E+00  0.981374495011E+00  0.988677993872E+00  0.999989832933E+00  0.982276487556E+00
  0.984072494542E+00  0.990406205567E+00  0.990318552172E+00  0.994391159691E+00  0.999990300362E+00  0.988748322048E+00  0.100365259146E+01
  0.999772941620E+00  0.100117452325E+01  0.100830242642E+01  0.100251255196E+01  0.102983026674E+01  0.100441935177E+01  0.100199165662E+01
  0.100081943454E+01  0.100137697976E+01  0.100825860164E+01  0.100297419402E+01  0.100191702874E+01  0.100214753160E+01  0.100354827506E+01
  0.100047636618E+01  0.100056435562E+01  0.100126646113E+01  0.100066798840E+01  0.100178612812E+01
        15         9        16        16
        15        18        11        11
        22        15        21        21
        11         5         9         9
         5         7         2         2
        11         9        15        15
        16        21        15        15
        16        10        14        14
        18        17        11        11
        17        25        24        24
        22        18        15        15
        22        30        31        31
        30        21        23        23
        16        20        23        23
        22        27        26        26
        10         9         4         4
         7        11        13        13
        25        18        26        26
        11         7         5         5
         5         1         4         4
        17        19        13        13
        23        32        30        30
        23        20        29        29
         4         9         5         5
         4         8        10        10
        26        18        22        22
        26        28        25        25
        13        11        17        17
        13         6         7         7
        31        30        32        32
         2         1         5         5
         2         7         6         6
        14        10         8         8
        24        19        17        17
        24        25        28        28
         9        10        16        16
         3         4         1         1
        33        26        27        27
        12        13        19        19
        21        30        22        22
        16        14        20        20
        16        23        21        21
        22        31        27        27
        18        25        17        17
        26        33        28        28
         4         3         8         8
        23        29        32        32
        13        12         6         6
zone t="boundary 4 bc-4", solutiontime= 0.3000000E+02, strandid=1004, i=32, j=46, f=feblock
  0.125000000000E+01  0.219251206392E+01  0.103724302461E+01  0.500000000000E+01  0.250000000000E+01  0.375000000000E+01  0.404200324774E+01
  0.500000000000E+01 -0.347954801358E-20  0.310152362409E+01  0.202479342020E+01  0.324151231464E+01  0.922061490191E+00 -0.347954801358E-20
  0.299062775774E+01  0.394624082883E+01  0.500000000000E+01  0.409252726285E+01  0.500000000000E+01  0.429310310915E+01  0.175434191980E+01
  0.284428995242E+01 -0.347954801358E-20 -0.347954801358E-20  0.715990576545E+00  0.930412228790E+00  0.125000000000E+01  0.187029682677E+01
  0.500000000000E+01  0.375000000000E+01  0.250000000000E+01 -0.347954801358E-20
  0.250494197117E+01  0.157686156160E+01  0.146289271009E+01  0.250494197117E+01  0.250494197117E+01  0.250494197117E+01  0.155830813274E+01
  0.125000000000E+01  0.250494197117E+01  0.177790177481E+01  0.477386199275E+00  0.742988685424E+00  0.308372018325E+00  0.125000000000E+01
 -0.487811078581E+00 -0.144524380962E+01 -0.125000000000E+01 -0.345533899378E+00 -0.347954801358E-20  0.627766083140E+00 -0.739814786992E+00
 -0.158811787973E+01 -0.347954801358E-20 -0.125000000000E+01 -0.600232012419E+00 -0.154800130438E+01 -0.249658903664E+01 -0.178862290564E+01
 -0.249658903664E+01 -0.249658903664E+01 -0.249658903664E+01 -0.249658903664E+01
  0.500000000000E+01  0.500000000000E+01  0.500000000000E+01  0.500000000000E+01  0.500000000000E+01  0.500000000000E+01  0.500000000000E+01
  0.500000000000E+01  0.500000000000E+01  0.500000000000E+01  0.500000000000E+01  0.500000000000E+01  0.500000000000E+01  0.500000000000E+01
  0.500000000000E+01  0.500000000000E+01  0.500000000000E+01  0.500000000000E+01  0.500000000000E+01  0.500000000000E+01  0.500000000000E+01
  0.500000000000E+01  0.500000000000E+01  0.500000000000E+01  0.500000000000E+01  0.500000000000E+01  0.500000000000E+01  0.500000000000E+01
  0.500000000000E+01  0.500000000000E+01  0.500000000000E+01  0.500000000000E+01
  0.100520746765E+01  0.100431820493E+01  0.100430438380E+01  0.100195691155E+01  0.100411957035E+01  0.100321547374E+01  0.100258561744E+01
  0.100200569582E+01  0.100424962882E+01  0.100371789098E+01  0.100446172274E+01  0.100347033500E+01  0.100365273462E+01  0.100423957605E+01
  0.100362826425E+01  0.100164102406E+01  0.100227062385E+01  0.100227590925E+01  0.100212968107E+01  0.100254297268E+01  0.100442938568E+01
  0.100337933687E+01  0.100288574895E+01  0.100334986492E+01  0.100323273785E+01  0.100406864355E+01  0.100511486651E+01  0.100432382337E+01
  0.100179139707E+01  0.100266693137E+01  0.100322279756E+01  0.100399815428E+01
  0.489144869173E+00  0.489275888730E+00  0.491034099494E+00  0.493073322010E+00  0.486817530129E+00  0.484779148813E+00  0.485409040597E+00
  0.494265954105E+00  0.495801249811E+00  0.486823634771E+00  0.488148012208E+00  0.487234359451E+00  0.494435992165E+00  0.496536239816E+00
  0.487825860849E+00  0.483164742365E+00  0.492560577425E+00  0.487247173658E+00  0.494866211547E+00  0.488004707601E+00  0.490073017549E+00
  0.488215716244E+00  0.497536739585E+00  0.496381588639E+00  0.495258179953E+00  0.493196397484E+00  0.490417874889E+00  0.490360811461E+00
  0.491395725723E+00  0.486158645366E+00  0.490251361017E+00  0.495515591851E+00
  0.000000000000E+00 -0.582336026020E-04 -0.127319971554E-02  0.000000000000E+00  0.000000000000E+00  0.000000000000E+00  0.473414542410E-03
  0.851666440790E-03  0.000000000000E+00  0.313099986183E-03 -0.889808873066E-03 -0.751236438849E-03 -0.173032759536E-02 -0.661799994524E-04
 -0.105111096515E-02 -0.996948087247E-03 -0.129307902156E-02 -0.207593882518E-02 -0.126288119831E-02 -0.996607157342E-03 -0.596952431903E-03
 -0.741805498806E-03 -0.202416492243E-03  0.805477254670E-03  0.601073292719E-04  0.162369398095E-02  0.000000000000E+00  0.803386650085E-03
  0.000000000000E+00  0.000000000000E+00  0.000000000000E+00  0.000000000000E+00