title="tecplot geometry and solution file"
variables = x y z rho u v w p mach temperature
zone t="boundary 1 bc-1", solutiontime= 0.7000000E+02, strandid=1001, i=32, j=46, f=feblock
 -0.547468544169E-02 -0.318078649032E-19 -0.567606031243E-02 -0.318078649032E-19 -0.318078649032E-19 -0.318078649032E-19 -0.525159244851E-02
 -0.425776897977E-02 -0.318078649032E-19 -0.318078649032E-19 -0.318078649032E-19 -0.318078649032E-19 -0.318078649032E-19 -0.318078649032E-19
 -0.318078649032E-19 -0.318078649032E-19 -0.338395986572E-02 -0.318078649032E-19 -0.318078649032E-19 -0.318078649032E-19 -0.318078649032E-19
 -0.318078649032E-19 -0.318078649032E-19 -0.318078649032E-19 -0.318078649032E-19 -0.318078649032E-19 -0.318078649032E-19 -0.318078649032E-19
 -0.318078649032E-19 -0.318078649032E-19 -0.318078649032E-19 -0.318078649032E-19
  0.250494197117E+01  0.250494197117E+01  0.127822156907E+01  0.146289271009E+01  0.157686156160E+01  0.308372018325E+00  0.261948602442E-01
 -0.122573481164E+01 -0.600232012419E+00  0.250494197117E+01  0.477386199275E+00  0.742988685424E+00 -0.739814786992E+00  0.177790177481E+01
  0.155830813274E+01  0.250494197117E+01 -0.249658903664E+01 -0.154800130438E+01 -0.487811078581E+00  0.250494197117E+01  0.627766083140E+00
 -0.345533899378E+00 -0.178862290564E+01 -0.158811787973E+01  0.125000000000E+01 -0.249658903664E+01 -0.144524380962E+01 -0.318078649032E-19
 -0.125000000000E+01 -0.249658903664E+01 -0.249658903664E+01 -0.249658903664E+01
  0.803813859867E-04  0.125000000000E+01  0.822460170215E-04  0.103724302461E+01  0.219251206392E+01  0.922061490191E+00  0.103872438719E-03
  0.341545874230E-04  0.715990576545E+00  0.250000000000E+01  0.202479342020E+01  0.324151231464E+01  0.175434191980E+01  0.310152362409E+01
  0.404200324774E+01  0.375000000000E+01  0.810725962649E-04  0.930412228790E+00  0.299062775774E+01  0.500000000000E+01  0.429310310915E+01
  0.409252726285E+01  0.187029682677E+01  0.284428995242E+01  0.500000000000E+01  0.125000000000E+01  0.394624082883E+01  0.500000000000E+01
  0.500000000000E+01  0.250000000000E+01  0.375000000000E+01  0.500000000000E+01
  0.134610831626E+01  0.106375546125E+01  0.142661175062E+01  0.108602668683E+01  0.103229749831E+01  0.120170182207E+01  0.164672969495E+01
  0.149542069346E+01  0.123512317330E+01  0.102386944101E+01  0.102822218334E+01  0.101305388328E+01  0.103253556519E+01  0.101467213814E+01
  0.100662698728E+01  0.100826833011E+01  0.144847545368E+01  0.116396754638E+01  0.101464052041E+01  0.100424996160E+01  0.100679645631E+01
  0.100725182593E+01  0.104656548092E+01  0.101934079208E+01  0.100423992223E+01  0.106448525693E+01  0.100790708719E+01  0.100288596921E+01
  0.100335006308E+01  0.102844206179E+01  0.100960587344E+01  0.100399794413E+01
  0.000000000000E+00  0.444887282197E+00  0.000000000000E+00  0.468180339959E+00  0.462186785110E+00  0.443238672551E+00  0.000000000000E+00
  0.000000000000E+00  0.379439107509E+00  0.471807259633E+00  0.466360665923E+00  0.479394554346E+00  0.490363734384E+00  0.484571640744E+00
  0.488597463468E+00  0.489900739480E+00  0.000000000000E+00  0.451029462804E+00  0.474778702955E+00  0.495800901400E+00  0.490926840414E+00
  0.486826275009E+00  0.448796916187E+00  0.465790677721E+00  0.496535897911E+00  0.444910678001E+00  0.487666690715E+00  0.497536485691E+00
  0.496381519705E+00  0.470013287518E+00  0.489177491747E+00  0.495515500982E+00
  0.000000000000E+00  0.000000000000E+00  0.000000000000E+00  0.182111741419E-01 -0.276667517297E-02  0.330008534466E-01  0.000000000000E+00
  0.000000000000E+00 -0.635883490352E-02  0.000000000000E+00  0.362941050886E-02 -0.561333437378E-02 -0.432753016221E-02  0.439695186451E-04
 -0.103547486723E-02  0.000000000000E+00  0.000000000000E+00 -0.779174825199E-02  0.391747729432E-03  0.000000000000E+00 -0.202831573519E-02
 -0.137699853509E-02  0.151652499934E-02 -0.162047926476E-02 -0.665396142644E-04  0.000000000000E+00 -0.290738399129E-04 -0.202432667592E-03
  0.805362584558E-03  0.000000000000E+00  0.000000000000E+00  0.000000000000E+00
  0.000000000000E+00  0.453283688327E-01  0.000000000000E+00  0.123658722989E+00  0.245692488181E-01  0.166125821900E+00  0.000000000000E+00
  0.000000000000E+00  0.155960001217E+00  0.352702465136E-02  0.259078649331E-01 -0.647805131999E-02  0.752820989707E-01  0.371569825460E-02
 -0.127529733722E-03  0.471453021126E-03  0.000000000000E+00  0.141096928716E+00 -0.806995808970E-02  0.236433645986E-02 -0.280388787665E-03
 -0.438302902143E-02  0.256769941744E-01 -0.189363841180E-02  0.307401557227E-02  0.838612076815E-01 -0.122860356661E-02  0.268491025601E-02
  0.264424848834E-02  0.283393306005E-02 -0.846589259443E-03  0.345685058078E-02
  0.961496613929E+00  0.782491126482E+00  0.101899898032E+01  0.808635919190E+00  0.746113331730E+00  0.879959780950E+00  0.117622540494E+01
  0.106814927565E+01  0.916484223180E+00  0.737375270835E+00  0.743650981295E+00  0.725792793930E+00  0.757479366993E+00  0.729144504193E+00
  0.720777570509E+00  0.722747151228E+00  0.103461779632E+01  0.858092897600E+00  0.728072575471E+00  0.718602764803E+00  0.721012357560E+00
  0.721154301244E+00  0.759934141406E+00  0.732618494780E+00  0.718521956538E+00  0.790948760516E+00  0.722118117528E+00  0.717197480026E+00
  0.717641997055E+00  0.741773499268E+00  0.724071788705E+00  0.718406370615E+00
  0.000000000000E+00  0.440666214090E+00  0.000000000000E+00  0.474617251435E+00  0.460123126357E+00  0.468636774984E+00  0.000000000000E+00
  0.000000000000E+00  0.402549872254E+00  0.469884091893E+00  0.464193478194E+00  0.478749614937E+00  0.489549465333E+00  0.483128669053E+00
  0.488002259909E+00  0.489034104322E+00  0.000000000000E+00  0.465240564346E+00  0.473760502823E+00  0.495364297290E+00  0.490293371229E+00
  0.486277598054E+00  0.445854520604E+00  0.464358879563E+00  0.496127933522E+00  0.443900347071E+00  0.486930056481E+00  0.497248722541E+00
  0.496055921459E+00  0.467744048732E+00  0.488189258165E+00  0.495091099977E+00
  0.999990300362E+00  0.102983027301E+01  0.999990762612E+00  0.104241479569E+01  0.101187755093E+01  0.102516586953E+01  0.999991420552E+00
  0.999992171067E+00  0.103882587599E+01  0.100825880510E+01  0.101253541373E+01  0.100301664923E+01  0.102705528947E+01  0.100604152563E+01
  0.100244540576E+01  0.100354834274E+01  0.999992724186E+00  0.103209927148E+01  0.100459382920E+01  0.100178631734E+01  0.100260315206E+01
  0.100234717451E+01  0.101657069468E+01  0.100620508927E+01  0.100168367826E+01  0.104024762909E+01  0.100303428499E+01  0.100118707696E+01
  0.100134422954E+01  0.100976315298E+01  0.100405567247E+01  0.100176392267E+01
        12        19        11        11
        11         5        12        12
        10        14         5         5
        19        13        11        11
        19        24        13        13
        30        23        24        24
        19        12        22        22
        28        22        21        21
        11        13         6         6
         7         6         9         9
        15        12        14        14
        18        13        23        23
        15        25        21        21
        27        19        22        22
        18         8         9         9
        27        31        24        24
         4        11         6         6
         5        14        12        12
         4         2         5         5
        21        12        15        15
        14        16        15        15
        24        19        27        27
        22        29        27        27
        23        26        18        18
        17         8        18        18
         5        11         4         4
         6         3         4         4
        26        23        30        30
         5         2        10        10
        16        14        10        10
         3         6         7         7
        21        25        28        28
        29        22        28        28
         6        13         9         9
         2         4         1         1
        31        27        32        32
        25        15        20        20
        24        23        13        13
         8         7         9         9
        13        18         9         9
        31        30        24        24
        12        21        22        22
        29        32        27        27
         3         1         4         4
        26        17        18        18
        16        20        15        15
zone t="boundary 2 bc-2", solutiontime= 0.7000000E+02, strandid=1002, i=33, j=48, f=feblock
  0.500195253374E+01  0.375034811161E+01  0.249861146299E+01  0.288036674177E+01  0.124717526933E+01  0.190856698521E+01  0.326577190273E+01
  0.201394856120E+01 -0.338395986572E-02  0.962374249381E+00  0.500000000000E+01  0.403430190008E+01  0.423029563807E+01  0.500000000000E+01
  0.385439188940E+01  0.500000000000E+01  0.398133433176E+01  0.315200081417E+01  0.266958028869E+01  0.154798029824E+01  0.218327860466E+01
  0.893688440338E+00 -0.318078649032E-19  0.699009761768E+00  0.964460899052E+00  0.310303671659E+01 -0.318078649032E-19 -0.318078649032E-19
  0.125000000000E+01  0.500000000000E+01  0.375000000000E+01  0.250000000000E+01 -0.318078649032E-19
 -0.249658903664E+01 -0.249658903664E+01 -0.249658903664E+01 -0.249658903664E+01 -0.249658903664E+01 -0.249658903664E+01 -0.249658903664E+01
 -0.249658903664E+01 -0.249658903664E+01 -0.249658903664E+01 -0.249658903664E+01 -0.249658903664E+01 -0.249658903664E+01 -0.249658903664E+01
 -0.249658903664E+01 -0.249658903664E+01 -0.249658903664E+01 -0.249658903664E+01 -0.249658903664E+01 -0.249658903664E+01 -0.249658903664E+01
 -0.249658903664E+01 -0.249658903664E+01 -0.249658903664E+01 -0.249658903664E+01 -0.249658903664E+01 -0.249658903664E+01 -0.249658903664E+01
 -0.249658903664E+01 -0.249658903664E+01 -0.249658903664E+01 -0.249658903664E+01 -0.249658903664E+01
  0.108225889030E-03  0.145875369682E-03  0.100893326425E-03  0.901663374396E+00  0.110858761917E-03  0.714928318829E+00  0.188140648011E+01
  0.175892165504E+01  0.810725962649E-04  0.957504300331E+00  0.125000000000E+01  0.100596698996E+01  0.191313519089E+01  0.250000000000E+01
  0.292898096716E+01  0.375000000000E+01  0.406883369524E+01  0.363389289944E+01  0.284756860985E+01  0.292582308120E+01  0.395754054931E+01
  0.205027256979E+01  0.125000000000E+01  0.306703272692E+01  0.397155766662E+01  0.433068622168E+01  0.250000000000E+01  0.375000000000E+01
  0.500000000000E+01  0.500000000000E+01  0.500000000000E+01  0.500000000000E+01  0.500000000000E+01
  0.831048947528E+00  0.935354824298E+00  0.934389728827E+00  0.968094443781E+00  0.961616792516E+00  0.964874050948E+00  0.984210079053E+00
  0.991408428646E+00  0.144847545368E+01  0.102898692700E+01  0.956112561716E+00  0.960814783147E+00  0.981522843610E+00  0.100650795558E+01
  0.997935784353E+00  0.100981608803E+01  0.100200366737E+01  0.998069050929E+00  0.991091308304E+00  0.100132489868E+01  0.100093956959E+01
  0.101223133635E+01  0.106448525693E+01  0.101079826183E+01  0.100685807224E+01  0.100119204083E+01  0.102844206179E+01  0.100960587344E+01
  0.100511534475E+01  0.100179357830E+01  0.100266912376E+01  0.100322320969E+01  0.100399794413E+01
  0.000000000000E+00  0.000000000000E+00  0.000000000000E+00  0.378615143969E+00  0.000000000000E+00  0.340330036829E+00  0.582178245463E+00
  0.575334648175E+00  0.000000000000E+00  0.489381112418E+00  0.495137410657E+00  0.430537259151E+00  0.569176925021E+00  0.536367073038E+00
  0.569065099392E+00  0.516259718218E+00  0.508563867681E+00  0.527499055203E+00  0.566854326357E+00  0.532032725612E+00  0.506130936500E+00
  0.520947368835E+00  0.444910678001E+00  0.491385540634E+00  0.492729803661E+00  0.501502412957E+00  0.470013287518E+00  0.489177491747E+00
  0.490417254849E+00  0.491396778280E+00  0.486161130972E+00  0.490250021779E+00  0.495515500982E+00
  0.000000000000E+00  0.000000000000E+00  0.000000000000E+00  0.000000000000E+00  0.000000000000E+00  0.000000000000E+00  0.000000000000E+00
  0.000000000000E+00  0.000000000000E+00  0.000000000000E+00  0.000000000000E+00  0.000000000000E+00  0.000000000000E+00  0.000000000000E+00
  0.000000000000E+00  0.000000000000E+00  0.000000000000E+00  0.000000000000E+00  0.000000000000E+00  0.000000000000E+00  0.000000000000E+00
  0.000000000000E+00  0.000000000000E+00  0.000000000000E+00  0.000000000000E+00  0.000000000000E+00  0.000000000000E+00  0.000000000000E+00
  0.000000000000E+00  0.000000000000E+00  0.000000000000E+00  0.000000000000E+00  0.000000000000E+00
  0.000000000000E+00  0.000000000000E+00  0.000000000000E+00 -0.232905752398E-02  0.000000000000E+00  0.182353599389E-01  0.121236131853E-01
  0.453891497845E-01  0.000000000000E+00  0.867493105997E-01 -0.992592305806E-01 -0.210121301805E-01 -0.304697136071E-01 -0.412644334340E-01
 -0.132004578026E-02  0.269956670777E-02  0.637123367770E-03  0.535256024934E-03  0.151134138193E-01  0.283971490414E-01  0.565020077783E-02
  0.553958399689E-01  0.838612076815E-01  0.110560461547E-01  0.679114914201E-02 -0.740732347460E-03  0.283393306005E-02 -0.846589259443E-03
  0.399773683345E-02  0.605665531646E-02 -0.135623221545E-03  0.119915526113E-02  0.345685058078E-02
  0.593602525814E+00  0.668106373636E+00  0.667416926167E+00  0.684291429127E+00  0.686864424939E+00  0.679258574307E+00  0.695864189066E+00
  0.702291799839E+00  0.103461779632E+01  0.723389828196E+00  0.672789507264E+00  0.675870605557E+00  0.694123989033E+00  0.721038067013E+00
  0.712711428969E+00  0.724812421391E+00  0.716595369987E+00  0.713312884597E+00  0.706427915719E+00  0.717741416815E+00  0.715380857901E+00
  0.730906771592E+00  0.790948760516E+00  0.724365793597E+00  0.721017449130E+00  0.715471812517E+00  0.741773499268E+00  0.724071788705E+00
  0.719322140358E+00  0.715894733707E+00  0.716614384194E+00  0.717376654943E+00  0.718406370615E+00
  0.000000000000E+00  0.000000000000E+00  0.000000000000E+00  0.380610262149E+00  0.000000000000E+00  0.343302163911E+00  0.585285498568E+00
  0.579523873720E+00  0.000000000000E+00  0.500979747331E+00  0.508782814016E+00  0.434361560749E+00  0.572843977212E+00  0.537166654001E+00
  0.569106490033E+00  0.515013352172E+00  0.508252450097E+00  0.527349030424E+00  0.567655252725E+00  0.531857855076E+00  0.506012444339E+00
  0.521051129094E+00  0.443900347071E+00  0.490706184896E+00  0.492149786373E+00  0.501385664790E+00  0.467744048732E+00  0.488189258165E+00
  0.489961991134E+00  0.491321546659E+00  0.486017931587E+00  0.489981935260E+00  0.495091099977E+00
  0.999993488485E+00  0.999993690942E+00  0.999993544242E+00  0.989581137390E+00  0.999993139053E+00  0.985581489207E+00  0.989839349776E+00
  0.991729030504E+00  0.999992724186E+00  0.984216351929E+00  0.985140607796E+00  0.984808793930E+00  0.990067211347E+00  0.100292629404E+01
  0.999859927063E+00  0.100487346357E+01  0.100122739133E+01  0.100057008832E+01  0.997888967161E+00  0.100350843654E+01  0.100059307424E+01
  0.101090476404E+01  0.104024762909E+01  0.100327844767E+01  0.100254887617E+01  0.100046793890E+01  0.100976315298E+01  0.100405567247E+01
  0.100192580062E+01  0.100045822703E+01  0.100058944082E+01  0.100110055989E+01  0.100176392267E+01
        15         7        19        19
         8        20        19        19
        18        19        21        21
         7         4         8         8
         3         6         4         4
        19         7         8         8
        19        18        15        15
        14        13        15        15
         8        22        20        20
        27        24        22        22
        19        20        21        21
        32        26        21        21
        17        18        26        26
        17        16        15        15
        25        29        21        21
        12         7        13        13
        10         8         6         6
        25        20        24        24
         4         6         8         8
        12         2         4         4
        10        23        22        22
        26        31        17        17
        30        16        17        17
         4         7        12        12
        13        11        12        12
        21        20        25        25
        24        28        25        25
        22         8        10        10
         6         5        10        10
        31        26        32        32
         4         2         3         3
         5         6         3         3
        11        13        14        14
        22        23        27        27
        28        24        27        27
        15        13         7         7
         2        12         1         1
        29        25        33        33
        23        10         9         9
        21        26        18        18
        16        14        15        15
        18        17        15        15
        29        32        21        21
        22        24        20        20
        28        33        25        25
        11         1        12        12
        31        30        17        17
         5         9        10        10
zone t="boundary 3 bc-3", solutiontime= 0.7000000E+02, strandid=1003, i=33, j=48, f=feblock
  0.375059096892E+01  0.249769609313E+01  0.500322133174E+01  0.403612218725E+01  0.287976772365E+01  0.124541910518E+01  0.190552237404E+01
  0.500000000000E+01  0.326671104552E+01  0.423253755448E+01  0.201271136506E+01 -0.547468544169E-02  0.958895643487E+00  0.500000000000E+01
  0.266968147299E+01  0.385584487271E+01  0.890374214836E+00  0.154654013699E+01 -0.318078649032E-19  0.500000000000E+01  0.315261136744E+01
  0.218304199515E+01  0.398195307895E+01 -0.318078649032E-19  0.697379952124E+00  0.963757277315E+00  0.125000000000E+01 -0.318078649032E-19
  0.500000000000E+01  0.310330738524E+01  0.250000000000E+01  0.375000000000E+01 -0.318078649032E-19
  0.250494197117E+01  0.250494197117E+01  0.250494197117E+01  0.250494197117E+01  0.250494197117E+01  0.250494197117E+01  0.250494197117E+01
  0.250494197117E+01  0.250494197117E+01  0.250494197117E+01  0.250494197117E+01  0.250494197117E+01  0.250494197117E+01  0.250494197117E+01
  0.250494197117E+01  0.250494197117E+01  0.250494197117E+01  0.250494197117E+01  0.250494197117E+01  0.250494197117E+01  0.250494197117E+01
  0.250494197117E+01  0.250494197117E+01  0.250494197117E+01  0.250494197117E+01  0.250494197117E+01  0.250494197117E+01  0.250494197117E+01
  0.250494197117E+01  0.250494197117E+01  0.250494197117E+01  0.250494197117E+01  0.250494197117E+01
  0.135649900494E-03  0.110129816467E-03  0.966887303890E-04  0.101756752009E+01  0.908094589218E+00  0.103942505801E-03  0.722629083213E+00
  0.125000000000E+01  0.188965661746E+01  0.191862696980E+01  0.176708239098E+01  0.803813859867E-04  0.969652551954E+00  0.250000000000E+01
  0.285339433501E+01  0.293325058812E+01  0.205656223819E+01  0.293157016932E+01  0.125000000000E+01  0.375000000000E+01  0.363766838842E+01
  0.396069444983E+01  0.407056385475E+01  0.250000000000E+01  0.307031995245E+01  0.397359820314E+01  0.500000000000E+01  0.375000000000E+01
  0.500000000000E+01  0.433260781310E+01  0.500000000000E+01  0.500000000000E+01  0.500000000000E+01
  0.942172442226E+00  0.946117217675E+00  0.843607675202E+00  0.964577423163E+00  0.979032723220E+00  0.957203999860E+00  0.983413604839E+00
  0.963701374183E+00  0.982803932649E+00  0.984389972676E+00  0.990475737607E+00  0.134610831626E+01  0.101939408823E+01  0.100835627204E+01
  0.993519346895E+00  0.998019553050E+00  0.100803794845E+01  0.100074573628E+01  0.106375546125E+01  0.100671242971E+01  0.100059276936E+01
  0.100235386205E+01  0.100177791184E+01  0.102386944101E+01  0.100869654929E+01  0.100526332827E+01  0.100520806490E+01  0.100826833011E+01
  0.100195893021E+01  0.100162064186E+01  0.100412011597E+01  0.100321752212E+01  0.100424996160E+01
  0.000000000000E+00  0.000000000000E+00  0.000000000000E+00  0.440185947535E+00  0.400363895574E+00  0.000000000000E+00  0.375219237763E+00
  0.494597367810E+00  0.572920158690E+00  0.569359282869E+00  0.559938998123E+00  0.000000000000E+00  0.484436995868E+00  0.533624805052E+00
  0.556225901421E+00  0.564433696392E+00  0.522383222199E+00  0.522300357321E+00  0.444887282197E+00  0.518274040455E+00  0.524589464198E+00
  0.503816824475E+00  0.509770333331E+00  0.471807259633E+00  0.496274703073E+00  0.494958709719E+00  0.489143074427E+00  0.489900739480E+00
  0.493071424673E+00  0.499098509772E+00  0.486813265336E+00  0.484775420506E+00  0.495800901400E+00
  0.000000000000E+00  0.000000000000E+00  0.000000000000E+00  0.000000000000E+00  0.000000000000E+00  0.000000000000E+00  0.000000000000E+00
  0.000000000000E+00  0.000000000000E+00  0.000000000000E+00  0.000000000000E+00  0.000000000000E+00  0.000000000000E+00  0.000000000000E+00
  0.000000000000E+00  0.000000000000E+00  0.000000000000E+00  0.000000000000E+00  0.000000000000E+00  0.000000000000E+00  0.000000000000E+00
  0.000000000000E+00  0.000000000000E+00  0.000000000000E+00  0.000000000000E+00  0.000000000000E+00  0.000000000000E+00  0.000000000000E+00
  0.000000000000E+00  0.000000000000E+00  0.000000000000E+00  0.000000000000E+00  0.000000000000E+00
  0.000000000000E+00  0.000000000000E+00  0.000000000000E+00 -0.226594155748E-01  0.112193965136E-01  0.000000000000E+00  0.181895730135E-01
 -0.100732320816E+00  0.385287726272E-02 -0.389417003751E-01  0.339611262220E-01  0.000000000000E+00  0.656427672918E-01 -0.424642275446E-01
  0.838411366432E-02 -0.653604101354E-02  0.487155272549E-01  0.134268443121E-01  0.453283688327E-01  0.711332013976E-03 -0.736123200658E-03
  0.238397918147E-02  0.837565334021E-03  0.352702465136E-02  0.103006265130E-01  0.427268045574E-02  0.337245886424E-02  0.471453021126E-03
  0.570390538393E-02  0.305984007686E-03  0.160645359423E-02  0.567798438268E-03  0.236433645986E-02
  0.672973145652E+00  0.675790859229E+00  0.602570663698E+00  0.676155665281E+00  0.691393387874E+00  0.683710191359E+00  0.689988520068E+00
  0.677395950702E+00  0.695267863882E+00  0.696328683588E+00  0.703514407090E+00  0.961496613929E+00  0.719946046501E+00  0.722885124531E+00
  0.709495720991E+00  0.713707851628E+00  0.726005214520E+00  0.716614514098E+00  0.782491126482E+00  0.722258495276E+00  0.716132750839E+00
  0.716553864260E+00  0.716542446622E+00  0.737375270835E+00  0.722640584703E+00  0.719421881454E+00  0.719547980102E+00  0.722747151228E+00
  0.716025294283E+00  0.715847810813E+00  0.718137414048E+00  0.717062208215E+00  0.718602764803E+00
  0.000000000000E+00  0.000000000000E+00  0.000000000000E+00  0.444930326693E+00  0.402807304832E+00  0.000000000000E+00  0.379033816204E+00
  0.508818739998E+00  0.575701380329E+00  0.573472074602E+00  0.562547829757E+00  0.000000000000E+00  0.491637802825E+00  0.534336813544E+00
  0.556352181579E+00  0.564140551431E+00  0.522485305911E+00  0.521817734730E+00  0.440666214090E+00  0.517132977412E+00  0.524068294233E+00
  0.503616120435E+00  0.509419881728E+00  0.469884091893E+00  0.495645014420E+00  0.494503343530E+00  0.488630212219E+00  0.489034104322E+00
  0.492987209121E+00  0.498957573929E+00  0.486507800264E+00  0.484614058973E+00  0.495364297290E+00
  0.999989345567E+00  0.999989414891E+00  0.999989632591E+00  0.981380974365E+00  0.988680684585E+00  0.999989832933E+00  0.982276351823E+00
  0.984074897461E+00  0.990406099425E+00  0.990319064682E+00  0.994391010835E+00  0.999990300362E+00  0.988748587758E+00  0.100365238200E+01
  0.999773192633E+00  0.100117376381E+01  0.100830261588E+01  0.100251270964E+01  0.102983027301E+01  0.100441979611E+01  0.100199190108E+01
  0.100081961865E+01  0.100137906158E+01  0.100825880510E+01  0.100297440226E+01  0.100191721483E+01  0.100214792073E+01  0.100354834274E+01
  0.100047555022E+01  0.100056537700E+01  0.100126704333E+01  0.100066742194E+01  0.100178631734E+01
        15         9        16        16
        15        18        11        11
        22        15        21        21
        11         5         9         9
         5         7         2         2
        11         9        15        15
        16        21        15        15
        16        10        14        14
        18        17        11        11
        17        25        24        24
        22        18        15        15
        22        30        31        31
        30        21        23        23
        16        20        23        23
        22        27        26        26
        10         9         4         4
         7        11        13        13
        25        18        26        26
        11         7         5         5
         5         1         4         4
        17        19        13        13
        23        32        30        30
        23        20        29        29
         4         9         5         5
         4         8        10        10
        26        18        22        22
        26        28        25        25
        13        11        17        17
        13         6         7         7
        31        30        32        32
         2         1         5         5
         2         7         6         6
        14        10         8         8
        24        19        17        17
        24        25        28        28
         9        10        16        16
         3         4         1         1
        33        26        27        27
        12        13        19        19
        21        30        22        22
        16        14        20        20
        16        23        21        21
        22        31        27        27
        18        25        17        17
        26        33        28        28
         4         3         8         8
        23        29        32        32
        13        12         6         6
zone t="boundary 4 bc-4", solutiontime= 0.7000000E+02, strandid=1004, i=32, j=46, f=feblock
  0.125000000000E+01  0.219251206392E+01  0.103724302461E+01  0.500000000000E+01  0.250000000000E+01  0.375000000000E+01  0.404200324774E+01
  0.500000000000E+01 -0.318078649032E-19  0.310152362409E+01  0.202479342020E+01  0.324151231464E+01  0.922061490191E+00 -0.318078649032E-19
  0.299062775774E+01  0.394624082883E+01  0.500000000000E+01  0.409252726285E+01  0.500000000000E+01  0.429310310915E+01  0.175434191980E+01
  0.284428995242E+01 -0.318078649032E-19 -0.318078649032E-19  0.715990576545E+00  0.930412228790E+00  0.125000000000E+01  0.187029682677E+01
  0.500000000000E+01  0.375000000000E+01  0.250000000000E+01 -0.318078649032E-19
  0.250494197117E+01  0.157686156160E+01  0.146289271009E+01  0.250494197117E+01  0.250494197117E+01  0.250494197117E+01  0.155830813274E+01
  0.125000000000E+01  0.250494197117E+01  0.177790177481E+01  0.477386199275E+00  0.742988685424E+00  0.308372018325E+00  0.125000000000E+01
 -0.487811078581E+00 -0.144524380962E+01 -0.125000000000E+01 -0.345533899378E+00 -0.318078649032E-19  0.627766083140E+00 -0.739814786992E+00
 -0.158811787973E+01 -0.318078649032E-19 -0.125000000000E+01 -0.600232012419E+00 -0.154800130438E+01 -0.249658903664E+01 -0.178862290564E+01
 -0.249658903664E+01 -0.249658903664E+01 -0.249658903664E+01 -0.249658903664E+01
  0.500000000000E+01  0.500000000000E+01  0.500000000000E+01  0.500000000000E+01  0.500000000000E+01  0.500000000000E+01  0.500000000000E+01
  0.500000000000E+01  0.500000000000E+01  0.500000000000E+01  0.500000000000E+01  0.500000000000E+01  0.500000000000E+01  0.500000000000E+01
  0.500000000000E+01  0.500000000000E+01  0.500000000000E+01  0.500000000000E+01  0.500000000000E+01  0.500000000000E+01  0.500000000000E+01
  0.500000000000E+01  0.500000000000E+01  0.500000000000E+01  0.500000000000E+01  0.500000000000E+01  0.500000000000E+01  0.500000000000E+01
  0.500000000000E+01  0.500000000000E+01  0.500000000000E+01  0.500000000000E+01
  0.100520806490E+01  0.100431924304E+01  0.100430499119E+01  0.100195893021E+01  0.100412011597E+01  0.100321752212E+01  0.100258950806E+01
  0.100200889435E+01  0.100424996160E+01  0.100371856069E+01  0.100446256305E+01  0.100347200060E+01  0.100365301814E+01  0.100423992223E+01
  0.100362939621E+01  0.100164315709E+01  0.100227308752E+01  0.100227913644E+01  0.100213224075E+01  0.100254678202E+01  0.100442989922E+01
  0.100338024038E+01  0.100288596921E+01  0.100335006308E+01  0.100323313730E+01  0.100406904037E+01  0.100511534475E+01  0.100432403941E+01
  0.100179357830E+01  0.100266912376E+01  0.100322320969E+01  0.100399794413E+01
  0.489143074427E+00  0.489273551214E+00  0.491032966794E+00  0.493071424673E+00  0.486813265336E+00  0.484775420506E+00  0.485406756418E+00
  0.494264082532E+00  0.495800901400E+00  0.486819175869E+00  0.488146793073E+00  0.487231239289E+00  0.494435302609E+00  0.496535897911E+00
  0.487825239609E+00  0.483167751361E+00  0.492561907137E+00  0.487246880650E+00  0.494865195897E+00  0.488002427382E+00  0.490072116441E+00
  0.488216384592E+00  0.497536485691E+00  0.496381519705E+00  0.495257681717E+00  0.493195598964E+00  0.490417254849E+00  0.490359927904E+00
  0.491396778280E+00  0.486161130972E+00  0.490250021779E+00  0.495515500982E+00
  0.000000000000E+00 -0.578651466717E-04 -0.127352059694E-02  0.000000000000E+00  0.000000000000E+00  0.000000000000E+00  0.474018023416E-03
  0.850808760096E-03  0.000000000000E+00  0.314094606738E-03 -0.890190396796E-03 -0.751271750807E-03 -0.173054660689E-02 -0.665396142644E-04
 -0.105319671899E-02 -0.998844014407E-03 -0.129446229164E-02 -0.207760563516E-02 -0.126376829536E-02 -0.997053157161E-03 -0.597641995793E-03
 -0.743089991519E-03 -0.202432667592E-03  0.805362584558E-03  0.601392475291E-04  0.162347641550E-02  0.000000000000E+00  0.803299904636E-03
  0.000000000000E+00  0.000000000000E+00  0.000000000000E+00  0.000000000000E+00