TITLE="fun3d_case_title"
VARIABLES="Iteration" "R_1" "R_2" "R_3" "R_4" "R_5" "C_L" "C_D" "C_M_x" "C_M_y" "C_M_z" "Wall Time" "C_x" "C_y" "C_z" "C_Lp" "C_Dp" "C_Lv" "C_Dv" "C_M_xp" "C_M_yp" "C_M_zp" "C_M_xv" "C_M_yv" "C_M_zv" "C_xp" "C_yp" "C_zp" "C_xv" "C_yv" "C_zv"
ZONE  I=100 F=POINT
1 -0.9927443160E-32 -0.4583851993E-32 -0.1617598058E-32 -0.1792687901E-32 -0.2607505485E-32  0.2970048056E-29 -0.3182665941E-30 -0.2481640101E-31 -0.1182816261E-28  0.8170838710E-30  0.0000000000E+00 -0.3182665941E-30  0.5239678530E-31  0.2970048056E-29  0.2970125009E-29 -0.3193893367E-30 -0.7695346532E-34  0.1122742578E-32 -0.2478874442E-31 -0.1183162655E-28  0.8171871886E-30 -0.2765658591E-34  0.3463942009E-32 -0.1033176397E-33 -0.3193893367E-30  0.5240157595E-31  0.2970125009E-29  0.1122742578E-32 -0.4790653576E-35 -0.7695346532E-34
2 -0.9236900611E-32 -0.9941995861E-32 -0.2770660206E-32  0.6916773427E-32 -0.1011083519E-31  0.6864966177E-29 -0.2618768386E-30  0.1238439000E-29 -0.1668765845E-28  0.1360225168E-29  0.0000000000E+00 -0.2618768386E-30  0.8641335159E-31  0.6864966177E-29  0.6865061065E-29 -0.2631595614E-30 -0.9488795942E-34  0.1282722833E-32  0.1238506748E-29 -0.1669123419E-28  0.1360305005E-29 -0.6774748478E-34  0.3575740322E-32 -0.7983699476E-34 -0.2631595614E-30  0.8641094646E-31  0.6865061065E-29  0.1282722833E-32  0.2405127645E-35 -0.9488795942E-34
3 -0.7359619463E-32 -0.3772669146E-32 -0.1313190950E-32  0.3417245812E-32 -0.2642894720E-33  0.9937988811E-29 -0.1661165352E-30 -0.5108831775E-30 -0.1279262884E-28  0.1493842520E-29  0.0000000000E+00 -0.1661165352E-30  0.1385256764E-30  0.9937988811E-29  0.9938112072E-29 -0.1673958633E-30 -0.1232604952E-33  0.1279328133E-32 -0.5107879383E-30 -0.1279617268E-28  0.1493870213E-29 -0.9523927630E-34  0.3543840216E-32 -0.2769290576E-34 -0.1673958633E-30  0.1385168602E-30  0.9938112072E-29  0.1279328133E-32  0.8816163512E-35 -0.1232604952E-33
4 -0.3169895882E-32 -0.3155025745E-32 -0.1672265773E-32 -0.5781160049E-33 -0.3273152133E-32  0.9701717371E-29 -0.1363663389E-30 -0.2596483250E-29 -0.7447757465E-29  0.1490746943E-29  0.0000000000E+00 -0.1363663389E-30  0.1447897989E-30  0.9701717371E-29  0.9701893503E-29 -0.1375669988E-30 -0.1761322285E-33  0.1200659885E-32 -0.2596405106E-29 -0.7451266648E-29  0.1490727584E-29 -0.7814485337E-34  0.3509183620E-32  0.1935951986E-34 -0.1375669988E-30  0.1447830866E-30  0.9701893503E-29  0.1200659885E-32  0.6712274459E-35 -0.1761322285E-33
5 -0.5246894573E-33 -0.2011476434E-32 -0.1329507269E-32 -0.1275157331E-32 -0.1118983907E-32  0.8196629657E-29 -0.1239881111E-30 -0.3369769744E-29 -0.3941345261E-29  0.1435039488E-29  0.0000000000E+00 -0.1239881111E-30  0.1396994351E-30  0.8196629657E-29  0.8196825340E-29 -0.1251318052E-30 -0.1956834825E-33  0.1143694142E-32 -0.3369730772E-29 -0.3944787231E-29  0.1434984776E-29 -0.3897111398E-34  0.3441969798E-32  0.5471253349E-34 -0.1251318052E-30  0.1396944872E-30  0.8196825340E-29  0.1143694142E-32  0.4947892670E-35 -0.1956834825E-33
6 -0.5853764126E-33 -0.1712920345E-32 -0.7985404573E-33 -0.4974951611E-33 -0.1236728543E-32  0.7008049115E-29 -0.1183855230E-30 -0.3130977290E-29 -0.2742320896E-29  0.1395462622E-29  0.0000000000E+00 -0.1183855230E-30  0.1396783739E-30  0.7008049115E-29  0.7008232712E-29 -0.1195216457E-30 -0.1835962500E-33  0.1136122742E-32 -0.3130967258E-29 -0.2745682801E-29  0.1395382046E-29 -0.1003221713E-34  0.3361904925E-32  0.8057619329E-34 -0.1195216457E-30  0.1396722437E-30  0.7008232712E-29  0.1136122742E-32  0.6130211761E-35 -0.1835962500E-33
7 -0.5610964194E-33 -0.1497966509E-32 -0.5283419841E-33  0.4544010284E-33 -0.1428033033E-32  0.6809925948E-29 -0.1151724525E-30 -0.2487095887E-29 -0.3603406820E-29  0.1380638000E-29  0.0000000000E+00 -0.1151724525E-30  0.1422889601E-30  0.6809925948E-29  0.6810085946E-29 -0.1163365008E-30 -0.1599984814E-33  0.1164048296E-32 -0.2487095573E-29 -0.3606694268E-29  0.1380541671E-29 -0.3132559683E-36  0.3287448084E-32  0.9632900772E-34 -0.1163365008E-30  0.1422801561E-30  0.6810085946E-29  0.1164048296E-32  0.8803948084E-35 -0.1599984814E-33
8 -0.1991908500E-33 -0.1098122109E-32 -0.3811657280E-33  0.1912470862E-33 -0.8939238694E-33  0.6804749760E-29 -0.1126086762E-30 -0.2000666951E-29 -0.4019499080E-29  0.1380540651E-29  0.0000000000E+00 -0.1126086762E-30  0.1444625908E-30  0.6804749760E-29  0.6804897397E-29 -0.1137951740E-30 -0.1476370279E-33  0.1186497872E-32 -0.2000663538E-29 -0.4022751917E-29  0.1380430667E-29 -0.3413033185E-35  0.3252836340E-32  0.1099837161E-33 -0.1137951740E-30  0.1444504211E-30  0.6804897397E-29  0.1186497872E-32  0.1216968380E-34 -0.1476370279E-33
9 -0.6131486009E-35 -0.7152111872E-33 -0.2736770683E-33  0.1450430898E-33 -0.4758532714E-33  0.6912771630E-29 -0.1102881001E-30 -0.1809634302E-29 -0.4233281289E-29  0.1383477615E-29  0.0000000000E+00 -0.1102881001E-30  0.1449341820E-30  0.6912771630E-29  0.6912916088E-29 -0.1114875666E-30 -0.1444580019E-33  0.1199466519E-32 -0.1809623610E-29 -0.4236521252E-29  0.1383357758E-29 -0.1069163448E-34  0.3239962781E-32  0.1198571696E-33 -0.1114875666E-30  0.1449200375E-30  0.6912916088E-29  0.1199466519E-32  0.1414448464E-34 -0.1444580019E-33
10  0.2117280888E-34 -0.4696559809E-33 -0.1909893201E-33  0.2417528762E-33 -0.2035056761E-33  0.7158202314E-29 -0.1081350264E-30 -0.1723224295E-29 -0.4857061227E-29  0.1385472190E-29  0.0000000000E+00 -0.1081350264E-30  0.1442000411E-30  0.7158202314E-29  0.7158348147E-29 -0.1093478444E-30 -0.1458329295E-33  0.1212817946E-32 -0.1723208045E-29 -0.4860299721E-29  0.1385344348E-29 -0.1624990111E-34  0.3238493927E-32  0.1278418163E-33 -0.1093478444E-30  0.1441837445E-30  0.7158348147E-29  0.1212817946E-32  0.1629661511E-34 -0.1458329295E-33
11 -0.3906788395E-34 -0.3312485866E-33 -0.1170896711E-33 -0.2208910603E-33 -0.1764881212E-33  0.7107581381E-29 -0.1065212412E-30 -0.1839522999E-29 -0.4558830416E-29  0.1386231983E-29  0.0000000000E+00 -0.1065212412E-30  0.1435178616E-30  0.7107581381E-29  0.7107728735E-29 -0.1077346327E-30 -0.1473538580E-33  0.1213391537E-32 -0.1839504566E-29 -0.4562067243E-29  0.1386100064E-29 -0.1843351836E-34  0.3236826340E-32  0.1319187608E-33 -0.1077346327E-30  0.1435014912E-30  0.7107728735E-29  0.1213391537E-32  0.1637042876E-34 -0.1473538580E-33
12 -0.5704722461E-34 -0.2702488744E-33 -0.8023505668E-34  0.2613929049E-34 -0.2261829419E-33  0.7150442584E-29 -0.1055665196E-30 -0.1852427734E-29 -0.4701709941E-29  0.1385896204E-29  0.0000000000E+00 -0.1055665196E-30  0.1428133084E-30  0.7150442584E-29  0.7150591329E-29 -0.1067838453E-30 -0.1487455479E-33  0.1217325724E-32 -0.1852409193E-29 -0.4704946449E-29  0.1385761087E-29 -0.1854099050E-34  0.3236507909E-32  0.1351167694E-33 -0.1067838453E-30  0.1427964112E-30  0.7150591329E-29  0.1217325724E-32  0.1689718374E-34 -0.1487455479E-33
13 -0.2155953517E-34 -0.1701162400E-33 -0.6387516326E-34 -0.1378557963E-33 -0.8735663205E-34  0.7091972751E-29 -0.1049616396E-30 -0.1886592407E-29 -0.4525461516E-29  0.1385612699E-29  0.0000000000E+00 -0.1049616396E-30  0.1425330686E-30  0.7091972751E-29  0.7092121519E-29 -0.1061792089E-30 -0.1487684224E-33  0.1217569287E-32 -0.1886574304E-29 -0.4528695424E-29  0.1385475613E-29 -0.1810315124E-34  0.3233907596E-32  0.1370858606E-33 -0.1061792089E-30  0.1425161722E-30  0.7092121519E-29  0.1217569287E-32  0.1689632267E-34 -0.1487684224E-33
14 -0.2182615044E-34 -0.1270634716E-33 -0.4406702757E-34 -0.3974969676E-34 -0.7902477746E-34  0.7092158235E-29 -0.1046746158E-30 -0.1872062102E-29 -0.4548284953E-29  0.1385362359E-29  0.0000000000E+00 -0.1046746158E-30  0.1423779731E-30  0.7092158235E-29  0.7092306834E-29 -0.1058940399E-30 -0.1485990327E-33  0.1219424103E-32 -0.1872044319E-29 -0.4551516760E-29  0.1385224134E-29 -0.1778322795E-34  0.3231806703E-32  0.1382250765E-33 -0.1058940399E-30  0.1423609882E-30  0.7092306834E-29  0.1219424103E-32  0.1698486703E-34 -0.1485990327E-33
15 -0.4768517569E-35 -0.7180291870E-34 -0.3182937790E-34 -0.2762376569E-34 -0.2289434031E-34  0.7084835253E-29 -0.1044977683E-30 -0.1856066192E-29 -0.4535599945E-29  0.1385130753E-29  0.0000000000E+00 -0.1044977683E-30  0.1423049624E-30  0.7084835253E-29  0.7084983670E-29 -0.1057185577E-30 -0.1484171859E-33  0.1220789490E-32 -0.1856048354E-29 -0.4538830508E-29  0.1384991298E-29 -0.1783745903E-34  0.3230563739E-32  0.1394554983E-33 -0.1057185577E-30  0.1422877904E-30  0.7084983670E-29  0.1220789490E-32  0.1717200966E-34 -0.1484171859E-33
16 -0.5389047452E-35 -0.3846824139E-34 -0.2236675152E-34 -0.2097552682E-34 -0.7486890996E-35  0.7079157198E-29 -0.1043991908E-30 -0.1844804447E-29 -0.4520335676E-29  0.1384934856E-29  0.0000000000E+00 -0.1043991908E-30  0.1422621281E-30  0.7079157198E-29  0.7079305537E-29 -0.1056208877E-30 -0.1483394687E-33  0.1221696926E-32 -0.1844786405E-29 -0.4523565643E-29  0.1384794255E-29 -0.1804101290E-34  0.3229967059E-32  0.1406004530E-33 -0.1056208877E-30  0.1422447506E-30  0.7079305537E-29  0.1221696926E-32  0.1737744653E-34 -0.1483394687E-33
17 -0.3856497243E-35 -0.1511991815E-34 -0.1567342528E-34 -0.1729863067E-34 -0.2749393947E-35  0.7073376712E-29 -0.1043331912E-30 -0.1839780027E-29 -0.4501775690E-29  0.1384772062E-29  0.0000000000E+00 -0.1043331912E-30  0.1422275156E-30  0.7073376712E-29  0.7073525047E-29 -0.1055554188E-30 -0.1483354261E-33  0.1222227609E-32 -0.1839761812E-29 -0.4505005418E-29  0.1384630479E-29 -0.1821494782E-34  0.3229728612E-32  0.1415826811E-33 -0.1055554188E-30  0.1422099562E-30  0.7073525047E-29  0.1222227609E-32  0.1755936579E-34 -0.1483354261E-33
18 -0.3511948604E-35 -0.1070034992E-35 -0.1074848881E-34 -0.1312139707E-34  0.3355236326E-35  0.7065663547E-29 -0.1042919541E-30 -0.1838468819E-29 -0.4477251065E-29  0.1384644250E-29  0.0000000000E+00 -0.1042919541E-30  0.1421990680E-30  0.7065663547E-29  0.7065811929E-29 -0.1055143975E-30 -0.1483817773E-33  0.1222443332E-32 -0.1838450498E-29 -0.4480480792E-29  0.1384501894E-29 -0.1832158104E-34  0.3229727076E-32  0.1423553560E-33 -0.1055143975E-30  0.1421813682E-30  0.7065811929E-29  0.1222443332E-32  0.1769977274E-34 -0.1483817773E-33
19 -0.1981367593E-35  0.5261647036E-35 -0.7657436716E-35 -0.8941535433E-35  0.5020069050E-35  0.7059224313E-29 -0.1042662173E-30 -0.1838517182E-29 -0.4456794443E-29  0.1384543869E-29  0.0000000000E+00 -0.1042662173E-30  0.1421773962E-30  0.7059224313E-29  0.7059372722E-29 -0.1054887486E-30 -0.1484092588E-33  0.1222531278E-32 -0.1838498814E-29 -0.4460024164E-29  0.1384400950E-29 -0.1836775501E-34  0.3229721450E-32  0.1429186623E-33 -0.1054887486E-30  0.1421595959E-30  0.7059372722E-29  0.1222531278E-32  0.1780024688E-34 -0.1484092588E-33
20  0.4629023251E-36  0.6451334893E-35 -0.5193014433E-35 -0.5514910184E-35  0.6201516011E-35  0.7054255392E-29 -0.1042528818E-30 -0.1838748508E-29 -0.4441346995E-29  0.1384466534E-29  0.0000000000E+00 -0.1042528818E-30  0.1421628563E-30  0.7054255392E-29  0.7054403816E-29 -0.1054754384E-30 -0.1484240710E-33  0.1222556537E-32 -0.1838730119E-29 -0.4444576709E-29  0.1384323224E-29 -0.1838938087E-34  0.3229713807E-32  0.1433101016E-33 -0.1054754384E-30  0.1421449893E-30  0.7054403816E-29  0.1222556537E-32  0.1786695551E-34 -0.1484240710E-33
21  0.1714757043E-35  0.4693010129E-35 -0.3478261724E-35 -0.2652369637E-35  0.4404330765E-35  0.7050983471E-29 -0.1042472332E-30 -0.1838858270E-29 -0.4431387889E-29  0.1384410660E-29  0.0000000000E+00 -0.1042472332E-30  0.1421547560E-30  0.7050983471E-29  0.7051131899E-29 -0.1054697959E-30 -0.1484285176E-33  0.1222562687E-32 -0.1838839864E-29 -0.4434617587E-29  0.1384267093E-29 -0.1840626651E-34  0.3229698301E-32  0.1435677024E-33 -0.1054697959E-30  0.1421368490E-30  0.7051131899E-29  0.1222562687E-32  0.1790696081E-34 -0.1484285176E-33
22  0.1707031155E-35  0.2388801894E-35 -0.2332200349E-35 -0.8046182646E-36  0.1911298150E-35  0.7049224391E-29 -0.1042461041E-30 -0.1838826952E-29 -0.4426132676E-29  0.1384374614E-29  0.0000000000E+00 -0.1042461041E-30  0.1421515584E-30  0.7049224391E-29  0.7049372820E-29 -0.1054686744E-30 -0.1484285566E-33  0.1222570379E-32 -0.1838808528E-29 -0.4429362359E-29  0.1384230886E-29 -0.1842345993E-34  0.3229683563E-32  0.1437282571E-33 -0.1054686744E-30  0.1421336296E-30  0.7049372820E-29  0.1222570379E-32  0.1792882891E-34 -0.1484285566E-33
23  0.1206902842E-35  0.4977578682E-36 -0.1619449168E-35  0.9022912445E-37  0.1309233611E-37  0.7048503102E-29 -0.1042468926E-30 -0.1838723979E-29 -0.4423988810E-29  0.1384354725E-29  0.0000000000E+00 -0.1042468926E-30  0.1421514335E-30  0.7048503102E-29  0.7048651530E-29 -0.1054694749E-30 -0.1484280920E-33  0.1222582242E-32 -0.1838705540E-29 -0.4427218486E-29  0.1384210901E-29 -0.1843899926E-34  0.3229675973E-32  0.1438237110E-33 -0.1054694749E-30  0.1421334933E-30  0.7048651530E-29  0.1222582242E-32  0.1794019943E-34 -0.1484280920E-33
24  0.6715042716E-36 -0.7596014830E-36 -0.1205531125E-35  0.3498298114E-36 -0.1078032247E-35  0.7048354682E-29 -0.1042481385E-30 -0.1838598030E-29 -0.4423495406E-29  0.1384346298E-29  0.0000000000E+00 -0.1042481385E-30  0.1421528130E-30  0.7048354682E-29  0.7048503111E-29 -0.1054707327E-30 -0.1484288744E-33  0.1222594162E-32 -0.1838579580E-29 -0.4426725083E-29  0.1384202419E-29 -0.1845054135E-34  0.3229677630E-32  0.1438791125E-33 -0.1054707327E-30  0.1421348664E-30  0.7048503111E-29  0.1222594162E-32  0.1794657684E-34 -0.1484288744E-33
25  0.2403674786E-36 -0.1452640980E-35 -0.9544241821E-36  0.2914312666E-36 -0.1594111362E-35  0.7048441200E-29 -0.1042490711E-30 -0.1838475813E-29 -0.4423649733E-29  0.1384344690E-29  0.0000000000E+00 -0.1042490711E-30  0.1421546153E-30  0.7048441200E-29  0.7048589630E-29 -0.1054716732E-30 -0.1484309123E-33  0.1222602142E-32 -0.1838457355E-29 -0.4426879419E-29  0.1384200778E-29 -0.1845738080E-34  0.3229686027E-32  0.1439120772E-33 -0.1054716732E-30  0.1421366642E-30  0.7048589630E-29  0.1222602142E-32  0.1795115000E-34 -0.1484309123E-33
26 -0.4515949755E-37 -0.1705155701E-35 -0.7646303577E-36  0.1188516598E-36 -0.1727209387E-35  0.7048576084E-29 -0.1042494974E-30 -0.1838369723E-29 -0.4423936584E-29  0.1384346257E-29  0.0000000000E+00 -0.1042494974E-30  0.1421562537E-30  0.7048576084E-29  0.7048724517E-29 -0.1054721025E-30 -0.1484334235E-33  0.1222605090E-32 -0.1838351262E-29 -0.4427166280E-29  0.1384202324E-29 -0.1846027576E-34  0.3229696778E-32  0.1439336754E-33 -0.1054721025E-30  0.1421382984E-30  0.7048724517E-29  0.1222605090E-32  0.1795534339E-34 -0.1484334235E-33
27 -0.1953211302E-36 -0.1660694672E-35 -0.5888619490E-36 -0.4899501121E-37 -0.1618340059E-35  0.7048686907E-29 -0.1042495027E-30 -0.1838284983E-29 -0.4424176259E-29  0.1384348672E-29  0.0000000000E+00 -0.1042495027E-30  0.1421575092E-30  0.7048686907E-29  0.7048835343E-29 -0.1054721069E-30 -0.1484355841E-33  0.1222604293E-32 -0.1838266522E-29 -0.4427405965E-29  0.1384204722E-29 -0.1846059089E-34  0.3229706097E-32  0.1439497990E-33 -0.1054721069E-30  0.1421395497E-30  0.7048835343E-29  0.1222604293E-32  0.1795946779E-34 -0.1484355841E-33
28 -0.2465006532E-36 -0.1451166741E-35 -0.4223205415E-36 -0.1565088852E-36 -0.1374916880E-35  0.7048764660E-29 -0.1042492812E-30 -0.1838221582E-29 -0.4424355743E-29  0.1384350784E-29  0.0000000000E+00 -0.1042492812E-30  0.1421583744E-30  0.7048764660E-29  0.7048913097E-29 -0.1054718831E-30 -0.1484369764E-33  0.1222601874E-32 -0.1838203123E-29 -0.4427585455E-29  0.1384206822E-29 -0.1845962860E-34  0.3229712207E-32  0.1439629115E-33 -0.1054718831E-30  0.1421404111E-30  0.7048913097E-29  0.1222601874E-32  0.1796332490E-34 -0.1484369764E-33
29 -0.2404298576E-36 -0.1179065713E-35 -0.2769662999E-36 -0.1961250001E-36 -0.1084403256E-35  0.7048821422E-29 -0.1042490016E-30 -0.1838176317E-29 -0.4424504532E-29  0.1384352240E-29  0.0000000000E+00 -0.1042490016E-30  0.1421589305E-30  0.7048821422E-29  0.7048969859E-29 -0.1054716011E-30 -0.1484376160E-33  0.1222599519E-32 -0.1838157859E-29 -0.4427734247E-29  0.1384208266E-29 -0.1845831704E-34  0.3229715197E-32  0.1439736591E-33 -0.1054716011E-30  0.1421409638E-30  0.7048969859E-29  0.1222599519E-32  0.1796662140E-34 -0.1484376160E-33
30 -0.2092349664E-36 -0.9086427896E-36 -0.1630138392E-36 -0.1855524376E-36 -0.8078435982E-36  0.7048868311E-29 -0.1042487657E-30 -0.1838144909E-29 -0.4424640531E-29  0.1384353089E-29  0.0000000000E+00 -0.1042487657E-30  0.1421592722E-30  0.7048868311E-29  0.7049016749E-29 -0.1054713638E-30 -0.1484377604E-33  0.1222598013E-32 -0.1838126452E-29 -0.4427870247E-29  0.1384209107E-29 -0.1845716861E-34  0.3229716120E-32  0.1439820630E-33 -0.1054713638E-30  0.1421413030E-30  0.7049016749E-29  0.1222598013E-32  0.1796918164E-34 -0.1484377604E-33
31 -0.1719190379E-36 -0.6721719651E-36 -0.8296880707E-37 -0.1482398617E-36 -0.5780300294E-36  0.7048909437E-29 -0.1042486092E-30 -0.1838123586E-29 -0.4424762632E-29  0.1384353509E-29  0.0000000000E+00 -0.1042486092E-30  0.1421594758E-30  0.7048909437E-29  0.7049057875E-29 -0.1054712066E-30 -0.1484376945E-33  0.1222597395E-32 -0.1838105130E-29 -0.4427992349E-29  0.1384209521E-29 -0.1845637523E-34  0.3229716119E-32  0.1439881583E-33 -0.1054712066E-30  0.1421415048E-30  0.7049057875E-29  0.1222597395E-32  0.1797099413E-34 -0.1484376945E-33
32 -0.1371108638E-36 -0.4803736417E-36 -0.3325731522E-37 -0.1052329905E-36 -0.4038205178E-36  0.7048944377E-29 -0.1042485267E-30 -0.1838109566E-29 -0.4424862752E-29  0.1384353667E-29  0.0000000000E+00 -0.1042485267E-30  0.1421595924E-30  0.7048944377E-29  0.7049092815E-29 -0.1054711241E-30 -0.1484376054E-33  0.1222597357E-32 -0.1838091110E-29 -0.4428092468E-29  0.1384209675E-29 -0.1845593219E-34  0.3229715938E-32  0.1439921988E-33 -0.1054711241E-30  0.1421416202E-30  0.7049092815E-29  0.1222597357E-32  0.1797216959E-34 -0.1484376054E-33
33 -0.1074859726E-36 -0.3325422553E-36 -0.7340390609E-38 -0.7106781703E-37 -0.2796035307E-36  0.7048971822E-29 -0.1042484962E-30 -0.1838100867E-29 -0.4424936213E-29  0.1384353678E-29  0.0000000000E+00 -0.1042484962E-30  0.1421596540E-30  0.7048971822E-29  0.7049120259E-29 -0.1054710938E-30 -0.1484375658E-33  0.1222597560E-32 -0.1838082411E-29 -0.4428165929E-29  0.1384209683E-29 -0.1845574774E-34  0.3229715877E-32  0.1439946137E-33 -0.1054710938E-30  0.1421416812E-30  0.7049120259E-29  0.1222597560E-32  0.1797287214E-34 -0.1484375658E-33
34 -0.8309141999E-37 -0.2229953268E-36  0.2384129509E-38 -0.5049038524E-37 -0.1939016834E-36  0.7048991653E-29 -0.1042484950E-30 -0.1838095956E-29 -0.4424984949E-29  0.1384353613E-29  0.0000000000E+00 -0.1042484950E-30  0.1421596812E-30  0.7048991653E-29  0.7049140091E-29 -0.1054710928E-30 -0.1484375733E-33  0.1222597790E-32 -0.1838077501E-29 -0.4428214665E-29  0.1384209617E-29 -0.1845571531E-34  0.3229715951E-32  0.1439958842E-33 -0.1054710928E-30  0.1421417080E-30  0.7049140091E-29  0.1222597790E-32  0.1797326326E-34 -0.1484375733E-33
35 -0.6332616315E-37 -0.1448918828E-36  0.3038321888E-38 -0.3971396598E-37 -0.1355304811E-36  0.7049005116E-29 -0.1042485065E-30 -0.1838093557E-29 -0.4425015257E-29  0.1384353516E-29  0.0000000000E+00 -0.1042485065E-30  0.1421596881E-30  0.7049005116E-29  0.7049153553E-29 -0.1054711044E-30 -0.1484375997E-33  0.1222597966E-32 -0.1838075101E-29 -0.4428244973E-29  0.1384209520E-29 -0.1845575054E-34  0.3229716072E-32  0.1439964384E-33 -0.1054711044E-30  0.1421417146E-30  0.7049153553E-29  0.1222597966E-32  0.1797347114E-34 -0.1484375997E-33
36 -0.4758082758E-37 -0.9163676691E-37  0.1897313775E-40 -0.3295931952E-37 -0.9583587360E-37  0.7049014047E-29 -0.1042485209E-30 -0.1838092635E-29 -0.4425034124E-29  0.1384353416E-29  0.0000000000E+00 -0.1042485209E-30  0.1421596847E-30  0.7049014047E-29  0.7049162484E-29 -0.1054711190E-30 -0.1484376221E-33  0.1222598086E-32 -0.1838074179E-29 -0.4428263840E-29  0.1384209419E-29 -0.1845580182E-34  0.3229716169E-32  0.1439965983E-33 -0.1054711190E-30  0.1421417111E-30  0.7049162484E-29  0.1222598086E-32  0.1797358247E-34 -0.1484376221E-33
37 -0.3531936830E-37 -0.5720948807E-37 -0.3471153837E-38 -0.2715835290E-37 -0.6876463922E-37  0.7049020100E-29 -0.1042485338E-30 -0.1838092447E-29 -0.4425046762E-29  0.1384353329E-29  0.0000000000E+00 -0.1042485338E-30  0.1421596776E-30  0.7049020100E-29  0.7049168537E-29 -0.1054711320E-30 -0.1484376321E-33  0.1222598172E-32 -0.1838073991E-29 -0.4428276478E-29  0.1384209332E-29 -0.1845584562E-34  0.3229716218E-32  0.1439965736E-33 -0.1054711320E-30  0.1421417040E-30  0.7049168537E-29  0.1222598172E-32  0.1797364784E-34 -0.1484376321E-33
38 -0.2599985367E-37 -0.3621160621E-37 -0.6043648401E-38 -0.2180368718E-37 -0.5016028695E-37  0.7049024381E-29 -0.1042485439E-30 -0.1838092548E-29 -0.4425056016E-29  0.1384353263E-29  0.0000000000E+00 -0.1042485439E-30  0.1421596708E-30  0.7049024381E-29  0.7049172819E-29 -0.1054711422E-30 -0.1484376324E-33  0.1222598242E-32 -0.1838074092E-29 -0.4428285733E-29  0.1384209266E-29 -0.1845587616E-34  0.3229716231E-32  0.1439964827E-33 -0.1054711422E-30  0.1421416971E-30  0.7049172819E-29  0.1222598242E-32  0.1797369242E-34 -0.1484376324E-33
39 -0.1905462469E-37 -0.2405541029E-37 -0.7403850519E-38 -0.1719124781E-37 -0.3718229969E-37  0.7049027478E-29 -0.1042485512E-30 -0.1838092728E-29 -0.4425062989E-29  0.1384353218E-29  0.0000000000E+00 -0.1042485512E-30  0.1421596656E-30  0.7049027478E-29  0.7049175916E-29 -0.1054711495E-30 -0.1484376292E-33  0.1222598301E-32 -0.1838074273E-29 -0.4428292706E-29  0.1384209221E-29 -0.1845589588E-34  0.3229716231E-32  0.1439963820E-33 -0.1054711495E-30  0.1421416918E-30  0.7049175916E-29  0.1222598301E-32  0.1797372655E-34 -0.1484376292E-33
40 -0.1393464866E-37 -0.1719843955E-37 -0.7742233454E-38 -0.1345785837E-37 -0.2793639142E-37  0.7049029665E-29 -0.1042485562E-30 -0.1838092924E-29 -0.4425067978E-29  0.1384353190E-29  0.0000000000E+00 -0.1042485562E-30  0.1421596622E-30  0.7049029665E-29  0.7049178102E-29 -0.1054711545E-30 -0.1484376272E-33  0.1222598348E-32 -0.1838074468E-29 -0.4428297694E-29  0.1384209194E-29 -0.1845590913E-34  0.3229716233E-32  0.1439962928E-33 -0.1054711545E-30  0.1421416884E-30  0.7049178102E-29  0.1222598348E-32  0.1797375345E-34 -0.1484376272E-33
41 -0.1017018515E-37 -0.1322269881E-37 -0.7378248819E-38 -0.1048862689E-37 -0.2120442689E-37  0.7049031098E-29 -0.1042485595E-30 -0.1838093130E-29 -0.4425071150E-29  0.1384353175E-29  0.0000000000E+00 -0.1042485595E-30  0.1421596601E-30  0.7049031098E-29  0.7049179536E-29 -0.1054711578E-30 -0.1484376280E-33  0.1222598380E-32 -0.1838074674E-29 -0.4428300866E-29  0.1384209178E-29 -0.1845591930E-34  0.3229716243E-32  0.1439962197E-33 -0.1054711578E-30  0.1421416863E-30  0.7049179536E-29  0.1222598380E-32  0.1797377394E-34 -0.1484376280E-33
42 -0.7401881489E-38 -0.1068203780E-37 -0.6605798567E-38 -0.8103382020E-38 -0.1621307595E-37  0.7049031929E-29 -0.1042485616E-30 -0.1838093352E-29 -0.4425072815E-29  0.1384353166E-29  0.0000000000E+00 -0.1042485616E-30  0.1421596587E-30  0.7049031929E-29  0.7049180366E-29 -0.1054711600E-30 -0.1484376310E-33  0.1222598398E-32 -0.1838074896E-29 -0.4428302531E-29  0.1384209170E-29 -0.1845592820E-34  0.3229716257E-32  0.1439961610E-33 -0.1054711600E-30  0.1421416849E-30  0.7049180366E-29  0.1222598398E-32  0.1797378856E-34 -0.1484376310E-33
43 -0.5372935390E-38 -0.8820581258E-38 -0.5648156191E-38 -0.6173267195E-38 -0.1245932737E-37  0.7049032322E-29 -0.1042485630E-30 -0.1838093584E-29 -0.4425073406E-29  0.1384353161E-29  0.0000000000E+00 -0.1042485630E-30  0.1421596577E-30  0.7049032322E-29  0.7049180759E-29 -0.1054711614E-30 -0.1484376349E-33  0.1222598405E-32 -0.1838075128E-29 -0.4428303122E-29  0.1384209165E-29 -0.1845593641E-34  0.3229716273E-32  0.1439961140E-33 -0.1054711614E-30  0.1421416839E-30  0.7049180759E-29  0.1222598405E-32  0.1797379819E-34 -0.1484376349E-33
44 -0.3899681942E-38 -0.7295217479E-38 -0.4657700762E-38 -0.4626933183E-38 -0.9599892462E-38  0.7049032436E-29 -0.1042485639E-30 -0.1838093813E-29 -0.4425073356E-29  0.1384353158E-29  0.0000000000E+00 -0.1042485639E-30  0.1421596569E-30  0.7049032436E-29  0.7049180873E-29 -0.1054711623E-30 -0.1484376386E-33  0.1222598406E-32 -0.1838075358E-29 -0.4428303073E-29  0.1384209162E-29 -0.1845594394E-34  0.3229716287E-32  0.1439960765E-33 -0.1054711623E-30  0.1421416831E-30  0.7049180873E-29  0.1222598406E-32  0.1797380396E-34 -0.1484376386E-33
45 -0.2841968763E-38 -0.5974030162E-38 -0.3728680363E-38 -0.3417056004E-38 -0.7393972025E-38  0.7049032399E-29 -0.1042485645E-30 -0.1838094024E-29 -0.4425073007E-29  0.1384353155E-29  0.0000000000E+00 -0.1042485645E-30  0.1421596562E-30  0.7049032399E-29  0.7049180837E-29 -0.1054711629E-30 -0.1484376416E-33  0.1222598403E-32 -0.1838075568E-29 -0.4428302723E-29  0.1384209159E-29 -0.1845595064E-34  0.3229716298E-32  0.1439960465E-33 -0.1054711629E-30  0.1421416824E-30  0.7049180837E-29  0.1222598403E-32  0.1797380703E-34 -0.1484376416E-33
46 -0.2086999241E-38 -0.4817193248E-38 -0.2911638159E-38 -0.2496078244E-38 -0.5673212208E-38  0.7049032299E-29 -0.1042485648E-30 -0.1838094207E-29 -0.4425072569E-29  0.1384353153E-29  0.0000000000E+00 -0.1042485648E-30  0.1421596556E-30  0.7049032299E-29  0.7049180736E-29 -0.1054711632E-30 -0.1484376438E-33  0.1222598400E-32 -0.1838075751E-29 -0.4428302285E-29  0.1384209157E-29 -0.1845595639E-34  0.3229716305E-32  0.1439960228E-33 -0.1054711632E-30  0.1421416818E-30  0.7049180736E-29  0.1222598400E-32  0.1797380835E-34 -0.1484376438E-33
47 -0.1545411784E-38 -0.3817072308E-38 -0.2226410839E-38 -0.1810601800E-38 -0.4322230082E-38  0.7049032184E-29 -0.1042485651E-30 -0.1838094356E-29 -0.4425072147E-29  0.1384353151E-29  0.0000000000E+00 -0.1042485651E-30  0.1421596551E-30  0.7049032184E-29  0.7049180621E-29 -0.1054711635E-30 -0.1484376455E-33  0.1222598397E-32 -0.1838075900E-29 -0.4428301863E-29  0.1384209155E-29 -0.1845596119E-34  0.3229716310E-32  0.1439960042E-33 -0.1054711635E-30  0.1421416813E-30  0.7049180621E-29  0.1222598397E-32  0.1797380863E-34 -0.1484376455E-33
48 -0.1151237536E-38 -0.2971871489E-38 -0.1672848745E-38 -0.1306908589E-38 -0.3262152884E-38  0.7049032076E-29 -0.1042485653E-30 -0.1838094474E-29 -0.4425071779E-29  0.1384353150E-29  0.0000000000E+00 -0.1042485653E-30  0.1421596548E-30  0.7049032076E-29  0.7049180513E-29 -0.1054711637E-30 -0.1484376468E-33  0.1222598394E-32 -0.1838076018E-29 -0.4428301496E-29  0.1384209154E-29 -0.1845596512E-34  0.3229716314E-32  0.1439959896E-33 -0.1054711637E-30  0.1421416810E-30  0.7049180513E-29  0.1222598394E-32  0.1797380834E-34 -0.1484376468E-33
49 -0.8595097254E-39 -0.2275783198E-38 -0.1239100222E-38 -0.9383287176E-39 -0.2436668509E-38  0.7049031982E-29 -0.1042485654E-30 -0.1838094565E-29 -0.4425071471E-29  0.1384353149E-29  0.0000000000E+00 -0.1042485654E-30  0.1421596545E-30  0.7049031982E-29  0.7049180420E-29 -0.1054711638E-30 -0.1484376479E-33  0.1222598392E-32 -0.1838076109E-29 -0.4428301187E-29  0.1384209153E-29 -0.1845596827E-34  0.3229716318E-32  0.1439959782E-33 -0.1054711638E-30  0.1421416807E-30  0.7049180420E-29  0.1222598392E-32  0.1797380778E-34 -0.1484376479E-33
50 -0.6410566216E-39 -0.1716844783E-38 -0.9076533448E-39 -0.6689388940E-39 -0.1801945519E-38  0.7049031904E-29 -0.1042485655E-30 -0.1838094634E-29 -0.4425071217E-29  0.1384353149E-29  0.0000000000E+00 -0.1042485655E-30  0.1421596544E-30  0.7049031904E-29  0.7049180342E-29 -0.1054711639E-30 -0.1484376488E-33  0.1222598390E-32 -0.1838076178E-29 -0.4428300933E-29  0.1384209153E-29 -0.1845597075E-34  0.3229716321E-32  0.1439959692E-33 -0.1054711639E-30  0.1421416805E-30  0.7049180342E-29  0.1222598390E-32  0.1797380713E-34 -0.1484376488E-33
51 -0.4768241739E-39 -0.1278272079E-38 -0.6594711893E-39 -0.4729260977E-39 -0.1321008849E-38  0.7049031841E-29 -0.1042485656E-30 -0.1838094685E-29 -0.4425071011E-29  0.1384353148E-29  0.0000000000E+00 -0.1042485656E-30  0.1421596542E-30  0.7049031841E-29  0.7049180278E-29 -0.1054711640E-30 -0.1484376495E-33  0.1222598389E-32 -0.1838076229E-29 -0.4428300728E-29  0.1384209152E-29 -0.1845597269E-34  0.3229716323E-32  0.1439959621E-33 -0.1054711640E-30  0.1421416804E-30  0.7049180278E-29  0.1222598389E-32  0.1797380652E-34 -0.1484376495E-33
52 -0.3535985322E-39 -0.9409651114E-39 -0.4765631795E-39 -0.3318235871E-39 -0.9616380333E-39  0.7049031790E-29 -0.1042485656E-30 -0.1838094724E-29 -0.4425070850E-29  0.1384353148E-29  0.0000000000E+00 -0.1042485656E-30  0.1421596541E-30  0.7049031790E-29  0.7049180228E-29 -0.1054711640E-30 -0.1484376500E-33  0.1222598388E-32 -0.1838076268E-29 -0.4428300566E-29  0.1384209152E-29 -0.1845597416E-34  0.3229716325E-32  0.1439959566E-33 -0.1054711640E-30  0.1421416803E-30  0.7049180228E-29  0.1222598388E-32  0.1797380598E-34 -0.1484376500E-33
53 -0.2615387444E-39 -0.6858771066E-39 -0.3433307645E-39 -0.2318144202E-39 -0.6961685569E-39  0.7049031751E-29 -0.1042485657E-30 -0.1838094753E-29 -0.4425070726E-29  0.1384353147E-29  0.0000000000E+00 -0.1042485657E-30  0.1421596540E-30  0.7049031751E-29  0.7049180188E-29 -0.1054711641E-30 -0.1484376505E-33  0.1222598387E-32 -0.1838076297E-29 -0.4428300442E-29  0.1384209152E-29 -0.1845597526E-34  0.3229716326E-32  0.1439959524E-33 -0.1054711641E-30  0.1421416802E-30  0.7049180188E-29  0.1222598387E-32  0.1797380555E-34 -0.1484376505E-33
54 -0.1930253415E-39 -0.4956563511E-39 -0.2470390090E-39 -0.1620331059E-39 -0.5017335632E-39  0.7049031721E-29 -0.1042485657E-30 -0.1838094774E-29 -0.4425070633E-29  0.1384353147E-29  0.0000000000E+00 -0.1042485657E-30  0.1421596539E-30  0.7049031721E-29  0.7049180159E-29 -0.1054711641E-30 -0.1484376508E-33  0.1222598386E-32 -0.1838076318E-29 -0.4428300349E-29  0.1384209151E-29 -0.1845597607E-34  0.3229716327E-32  0.1439959491E-33 -0.1054711641E-30  0.1421416801E-30  0.7049180159E-29  0.1222598386E-32  0.1797380522E-34 -0.1484376508E-33