TITLE="fun3d_case_title"
VARIABLES="Iteration" "R_1" "R_2" "R_3" "R_4" "R_5" "C_L" "C_D" "C_M_x" "C_M_y" "C_M_z" "Wall Time" "C_x" "C_y" "C_z" "C_Lp" "C_Dp" "C_Lv" "C_Dv" "C_M_xp" "C_M_yp" "C_M_zp" "C_M_xv" "C_M_yv" "C_M_zv" "C_xp" "C_yp" "C_zp" "C_xv" "C_yv" "C_zv"
ZONE  I=100 F=POINT
1  0.0000000000E+00  0.0000000000E+00  0.0000000000E+00  0.0000000000E+00  0.0000000000E+00  0.0000000000E+00  0.0000000000E+00  0.0000000000E+00  0.0000000000E+00  0.0000000000E+00  0.0000000000E+00  0.0000000000E+00  0.0000000000E+00  0.0000000000E+00  0.0000000000E+00  0.0000000000E+00  0.0000000000E+00  0.0000000000E+00  0.0000000000E+00  0.0000000000E+00  0.0000000000E+00  0.0000000000E+00  0.0000000000E+00  0.0000000000E+00  0.0000000000E+00  0.0000000000E+00  0.0000000000E+00  0.0000000000E+00  0.0000000000E+00  0.0000000000E+00
2  0.9189640507E-59  0.3767017677E-59  0.1992844205E-58 -0.3648730848E-60 -0.4830546504E-59 -0.1797737965E-46  0.4564702321E-48 -0.2761011054E-44  0.2233147014E-45  0.1062126771E-44  0.0000000000E+00  0.4564702321E-48  0.4564830169E-44 -0.1797737965E-46 -0.1797737965E-46  0.4564702321E-48  0.0000000000E+00  0.0000000000E+00 -0.2761011054E-44  0.2233147014E-45  0.1062126771E-44  0.0000000000E+00  0.0000000000E+00  0.0000000000E+00  0.4564702321E-48  0.4564830169E-44 -0.1797737965E-46  0.0000000000E+00  0.0000000000E+00  0.0000000000E+00
3 -0.1036178978E-53 -0.4938117256E-54  0.8602616197E-55 -0.3885419379E-56 -0.3175073208E-53  0.1620811297E-45 -0.1978492856E-46 -0.9275842948E-44  0.1914274614E-45 -0.1236330448E-44  0.0000000000E+00 -0.1978492856E-46  0.1299491254E-43  0.1620811297E-45  0.1620811297E-45 -0.1978492856E-46  0.0000000000E+00  0.0000000000E+00 -0.9275842948E-44  0.1914274614E-45 -0.1236330448E-44  0.0000000000E+00  0.0000000000E+00  0.0000000000E+00 -0.1978492856E-46  0.1299491254E-43  0.1620811297E-45  0.0000000000E+00  0.0000000000E+00  0.0000000000E+00
4 -0.1030202618E-51 -0.9156093321E-52  0.1163120143E-53 -0.1254617357E-52 -0.2819804156E-51  0.4937779430E-41 -0.2225603505E-41  0.2970240101E-38  0.1138833121E-41 -0.3096759074E-39  0.0000000000E+00 -0.2225603505E-41 -0.3837396759E-38  0.4937779430E-41  0.4937779430E-41 -0.2225603505E-41  0.0000000000E+00  0.0000000000E+00  0.2970240101E-38  0.1138833121E-41 -0.3096759074E-39  0.0000000000E+00  0.0000000000E+00  0.0000000000E+00 -0.2225603505E-41 -0.3837396759E-38  0.4937779430E-41  0.0000000000E+00  0.0000000000E+00  0.0000000000E+00
5  0.5285830506E-51  0.7961263806E-51 -0.1551182636E-52  0.4315636124E-52  0.1557355078E-50 -0.4884707891E-39 -0.8015737546E-40  0.2693088767E-38  0.8920810018E-40 -0.5321476465E-39  0.0000000000E+00 -0.8015737546E-40 -0.3923388256E-38 -0.4884707891E-39 -0.4884707891E-39 -0.8015737546E-40  0.0000000000E+00  0.0000000000E+00  0.2693088767E-38  0.8920810018E-40 -0.5321476465E-39  0.0000000000E+00  0.0000000000E+00  0.0000000000E+00 -0.8015737546E-40 -0.3923388256E-38 -0.4884707891E-39  0.0000000000E+00  0.0000000000E+00  0.0000000000E+00
6  0.6983344356E-48  0.1351494503E-47 -0.6309633837E-49  0.4357202426E-49  0.2281280004E-47 -0.2705900469E-38 -0.3625753839E-39 -0.5611254164E-37  0.1509402972E-40  0.4496978033E-38  0.0000000000E+00 -0.3625753839E-39  0.6763657903E-37 -0.2705900469E-38 -0.2705900469E-38 -0.3625753839E-39  0.0000000000E+00  0.0000000000E+00 -0.5611254164E-37  0.1509402972E-40  0.4496978033E-38  0.0000000000E+00  0.0000000000E+00  0.0000000000E+00 -0.3625753839E-39  0.6763657903E-37 -0.2705900469E-38  0.0000000000E+00  0.0000000000E+00  0.0000000000E+00
7  0.4475488160E-47  0.7845450829E-47 -0.2086328773E-47  0.2999901790E-49  0.1525831562E-46  0.2697359769E-38 -0.8983688734E-39  0.5108965085E-38 -0.2049860267E-38 -0.2696199701E-38  0.0000000000E+00 -0.8983688734E-39 -0.4529157340E-38  0.2697359769E-38  0.2697359769E-38 -0.8983688734E-39  0.0000000000E+00  0.0000000000E+00  0.5108965085E-38 -0.2049860267E-38 -0.2696199701E-38  0.0000000000E+00  0.0000000000E+00  0.0000000000E+00 -0.8983688734E-39 -0.4529157340E-38  0.2697359769E-38  0.0000000000E+00  0.0000000000E+00  0.0000000000E+00
8  0.2134152489E-47 -0.4788007073E-46 -0.1992161704E-46  0.3052841649E-48 -0.4998574899E-48 -0.3562793768E-38 -0.1701389476E-38 -0.4080380257E-36 -0.1933634363E-38  0.2359002029E-37  0.0000000000E+00 -0.1701389476E-38  0.5892367811E-36 -0.3562793768E-38 -0.3562793768E-38 -0.1701389476E-38  0.0000000000E+00  0.0000000000E+00 -0.4080380257E-36 -0.1933634363E-38  0.2359002029E-37  0.0000000000E+00  0.0000000000E+00  0.0000000000E+00 -0.1701389476E-38  0.5892367811E-36 -0.3562793768E-38  0.0000000000E+00  0.0000000000E+00  0.0000000000E+00
9 -0.1350983274E-45 -0.3450111393E-45  0.8145529157E-47  0.3515049306E-47 -0.5945787795E-45  0.1541357681E-38 -0.2662370941E-38 -0.6487577522E-36 -0.5203197831E-38  0.2827745613E-37  0.0000000000E+00 -0.2662370941E-38  0.9219449040E-36  0.1541357681E-38  0.1541357681E-38 -0.2662370941E-38  0.0000000000E+00  0.0000000000E+00 -0.6487577522E-36 -0.5203197831E-38  0.2827745613E-37  0.0000000000E+00  0.0000000000E+00  0.0000000000E+00 -0.2662370941E-38  0.9219449040E-36  0.1541357681E-38  0.0000000000E+00  0.0000000000E+00  0.0000000000E+00
10 -0.1576011832E-45  0.8060868889E-45  0.1863705013E-45 -0.2450311014E-46 -0.3747635947E-45  0.1658411081E-37 -0.3351835143E-38 -0.9995562923E-36 -0.5570932917E-38  0.2607585519E-37  0.0000000000E+00 -0.3351835143E-38  0.1459674838E-35  0.1658411081E-37  0.1658411081E-37 -0.3351835143E-38  0.0000000000E+00  0.0000000000E+00 -0.9995562923E-36 -0.5570932917E-38  0.2607585519E-37  0.0000000000E+00  0.0000000000E+00  0.0000000000E+00 -0.3351835143E-38  0.1459674838E-35  0.1658411081E-37  0.0000000000E+00  0.0000000000E+00  0.0000000000E+00
11  0.1478879671E-44  0.8191759356E-44  0.1086264572E-45  0.6980722762E-46  0.5796019789E-44  0.6980667816E-38 -0.5189292647E-38 -0.8471026164E-36  0.5636320784E-39 -0.3212056241E-37  0.0000000000E+00 -0.5189292647E-38  0.1290557059E-35  0.6980667816E-38  0.6980667816E-38 -0.5189292647E-38  0.0000000000E+00  0.0000000000E+00 -0.8471026164E-36  0.5636320784E-39 -0.3212056241E-37  0.0000000000E+00  0.0000000000E+00  0.0000000000E+00 -0.5189292647E-38  0.1290557059E-35  0.6980667816E-38  0.0000000000E+00  0.0000000000E+00  0.0000000000E+00
12  0.1781846702E-44  0.4772359468E-44  0.1995583736E-45  0.2407828761E-46  0.5936270330E-44 -0.1876940931E-37 -0.5617712633E-38 -0.8993015307E-36  0.9122907073E-38 -0.6395510830E-37  0.0000000000E+00 -0.5617712633E-38  0.1405469331E-35 -0.1876940931E-37 -0.1876940931E-37 -0.5617712633E-38  0.0000000000E+00  0.0000000000E+00 -0.8993015307E-36  0.9122907073E-38 -0.6395510830E-37  0.0000000000E+00  0.0000000000E+00  0.0000000000E+00 -0.5617712633E-38  0.1405469331E-35 -0.1876940931E-37  0.0000000000E+00  0.0000000000E+00  0.0000000000E+00
13  0.2516535019E-45 -0.1110575418E-44  0.4894144979E-45 -0.4867181773E-46 -0.6700544403E-45 -0.3170233107E-37 -0.5153424866E-38 -0.6844071733E-36  0.1178140357E-37 -0.6769491702E-37  0.0000000000E+00 -0.5153424866E-38  0.1095066744E-35 -0.3170233107E-37 -0.3170233107E-37 -0.5153424866E-38  0.0000000000E+00  0.0000000000E+00 -0.6844071733E-36  0.1178140357E-37 -0.6769491702E-37  0.0000000000E+00  0.0000000000E+00  0.0000000000E+00 -0.5153424866E-38  0.1095066744E-35 -0.3170233107E-37  0.0000000000E+00  0.0000000000E+00  0.0000000000E+00
14 -0.2803059913E-45 -0.7299671187E-45 -0.2181010437E-45 -0.1418170994E-45 -0.1372591240E-44 -0.3426803729E-37 -0.2959295692E-38 -0.6098162180E-36  0.1148332062E-37 -0.1857280428E-37  0.0000000000E+00 -0.2959295692E-38  0.9802184235E-36 -0.3426803729E-37 -0.3426803729E-37 -0.2959295692E-38  0.0000000000E+00  0.0000000000E+00 -0.6098162180E-36  0.1148332062E-37 -0.1857280428E-37  0.0000000000E+00  0.0000000000E+00  0.0000000000E+00 -0.2959295692E-38  0.9802184235E-36 -0.3426803729E-37  0.0000000000E+00  0.0000000000E+00  0.0000000000E+00
15  0.2524163502E-45  0.8440918858E-45 -0.4700750426E-45 -0.2128962440E-45  0.9017920943E-45 -0.2141754384E-37 -0.1436299524E-38 -0.6156765636E-36  0.4367986079E-38  0.4892524484E-37  0.0000000000E+00 -0.1436299524E-38  0.9564256275E-36 -0.2141754384E-37 -0.2141754384E-37 -0.1436299524E-38  0.0000000000E+00  0.0000000000E+00 -0.6156765636E-36  0.4367986079E-38  0.4892524484E-37  0.0000000000E+00  0.0000000000E+00  0.0000000000E+00 -0.1436299524E-38  0.9564256275E-36 -0.2141754384E-37  0.0000000000E+00  0.0000000000E+00  0.0000000000E+00
16 -0.7435705360E-45  0.9942172768E-45  0.2310064263E-45 -0.3845600506E-45 -0.1772405352E-44 -0.4157940414E-38 -0.5699386489E-39 -0.8057889281E-36 -0.1526690537E-38  0.1083284880E-36  0.0000000000E+00 -0.5699386489E-39  0.1195795460E-35 -0.4157940414E-38 -0.4157940414E-38 -0.5699386489E-39  0.0000000000E+00  0.0000000000E+00 -0.8057889281E-36 -0.1526690537E-38  0.1083284880E-36  0.0000000000E+00  0.0000000000E+00  0.0000000000E+00 -0.5699386489E-39  0.1195795460E-35 -0.4157940414E-38  0.0000000000E+00  0.0000000000E+00  0.0000000000E+00
17 -0.8316924777E-45 -0.7325762135E-48 -0.1573755499E-44 -0.3386461671E-45 -0.2589726913E-44  0.1169812241E-37 -0.1413436803E-38 -0.9833541512E-36 -0.2450720299E-38  0.1220124504E-36  0.0000000000E+00 -0.1413436803E-38  0.1432826333E-35  0.1169812241E-37  0.1169812241E-37 -0.1413436803E-38  0.0000000000E+00  0.0000000000E+00 -0.9833541512E-36 -0.2450720299E-38  0.1220124504E-36  0.0000000000E+00  0.0000000000E+00  0.0000000000E+00 -0.1413436803E-38  0.1432826333E-35  0.1169812241E-37  0.0000000000E+00  0.0000000000E+00  0.0000000000E+00
18 -0.4581110544E-45 -0.2131799994E-44 -0.2988416081E-44 -0.1381076010E-45 -0.2051505906E-44  0.1755331576E-37 -0.3008642239E-38 -0.1086213784E-35  0.3532927982E-38  0.8786013279E-37  0.0000000000E+00 -0.3008642239E-38  0.1590295837E-35  0.1755331576E-37  0.1755331576E-37 -0.3008642239E-38  0.0000000000E+00  0.0000000000E+00 -0.1086213784E-35  0.3532927982E-38  0.8786013279E-37  0.0000000000E+00  0.0000000000E+00  0.0000000000E+00 -0.3008642239E-38  0.1590295837E-35  0.1755331576E-37  0.0000000000E+00  0.0000000000E+00  0.0000000000E+00
19 -0.2662965237E-44 -0.5968696427E-44 -0.1325558921E-44 -0.3254953901E-46 -0.9569681452E-44  0.9472286350E-38 -0.4374815275E-38 -0.1063126970E-35  0.1333073814E-37  0.3700115156E-37  0.0000000000E+00 -0.4374815275E-38  0.1586706933E-35  0.9472286350E-38  0.9472286350E-38 -0.4374815275E-38  0.0000000000E+00  0.0000000000E+00 -0.1063126970E-35  0.1333073814E-37  0.3700115156E-37  0.0000000000E+00  0.0000000000E+00  0.0000000000E+00 -0.4374815275E-38  0.1586706933E-35  0.9472286350E-38  0.0000000000E+00  0.0000000000E+00  0.0000000000E+00
20 -0.2683314969E-44 -0.4107564342E-44  0.3420014403E-45  0.1723128212E-45 -0.9304945897E-44 -0.7312343109E-38 -0.4260232591E-38 -0.1077061691E-35  0.2180671270E-37  0.1690888314E-37  0.0000000000E+00 -0.4260232591E-38  0.1644353726E-35 -0.7312343109E-38 -0.7312343109E-38 -0.4260232591E-38  0.0000000000E+00  0.0000000000E+00 -0.1077061691E-35  0.2180671270E-37  0.1690888314E-37  0.0000000000E+00  0.0000000000E+00  0.0000000000E+00 -0.4260232591E-38  0.1644353726E-35 -0.7312343109E-38  0.0000000000E+00  0.0000000000E+00  0.0000000000E+00
21 -0.2347897207E-45 -0.6224782550E-45  0.7443575414E-46  0.5105772666E-45 -0.1207429451E-44 -0.2073567330E-37 -0.2819471615E-38 -0.9476147722E-36  0.2507955562E-37  0.3519890921E-37  0.0000000000E+00 -0.2819471615E-38  0.1472827080E-35 -0.2073567330E-37 -0.2073567330E-37 -0.2819471615E-38  0.0000000000E+00  0.0000000000E+00 -0.9476147722E-36  0.2507955562E-37  0.3519890921E-37  0.0000000000E+00  0.0000000000E+00  0.0000000000E+00 -0.2819471615E-38  0.1472827080E-35 -0.2073567330E-37  0.0000000000E+00  0.0000000000E+00  0.0000000000E+00
22 -0.3837716182E-45  0.1767387216E-44  0.8901686834E-46  0.5249682758E-45 -0.3293669537E-45 -0.2546494185E-37 -0.9600360561E-39 -0.8680849467E-36  0.2289700217E-37  0.8417936362E-37  0.0000000000E+00 -0.9600360561E-39  0.1349282794E-35 -0.2546494185E-37 -0.2546494185E-37 -0.9600360561E-39  0.0000000000E+00  0.0000000000E+00 -0.8680849467E-36  0.2289700217E-37  0.8417936362E-37  0.0000000000E+00  0.0000000000E+00  0.0000000000E+00 -0.9600360561E-39  0.1349282794E-35 -0.2546494185E-37  0.0000000000E+00  0.0000000000E+00  0.0000000000E+00
23 -0.1005914446E-44  0.5532103353E-44  0.3762064418E-45  0.2543886795E-45 -0.6232049760E-45 -0.1947039112E-37  0.6300605789E-40 -0.8469375484E-36  0.1768701135E-37  0.1310675754E-36  0.0000000000E+00  0.6300605789E-40  0.1297046788E-35 -0.1947039112E-37 -0.1947039112E-37  0.6300605789E-40  0.0000000000E+00  0.0000000000E+00 -0.8469375484E-36  0.1768701135E-37  0.1310675754E-36  0.0000000000E+00  0.0000000000E+00  0.0000000000E+00  0.6300605789E-40  0.1297046788E-35 -0.1947039112E-37  0.0000000000E+00  0.0000000000E+00  0.0000000000E+00
24  0.2907000875E-45  0.9399240100E-44  0.2969405000E-45  0.1174884706E-45  0.4277777336E-44 -0.1073217670E-37  0.5189382685E-39 -0.9068130642E-36  0.1492679381E-37  0.1626913496E-36  0.0000000000E+00  0.5189382685E-39  0.1365251949E-35 -0.1073217670E-37 -0.1073217670E-37  0.5189382685E-39  0.0000000000E+00  0.0000000000E+00 -0.9068130642E-36  0.1492679381E-37  0.1626913496E-36  0.0000000000E+00  0.0000000000E+00  0.0000000000E+00  0.5189382685E-39  0.1365251949E-35 -0.1073217670E-37  0.0000000000E+00  0.0000000000E+00  0.0000000000E+00
25  0.7092516000E-45  0.8039899456E-44  0.4988687624E-45  0.1639479731E-45  0.4534257616E-44 -0.1757385988E-38  0.2923436870E-39 -0.9675325777E-36  0.1468647614E-37  0.1698689487E-36  0.0000000000E+00  0.2923436870E-39  0.1445003104E-35 -0.1757385988E-38 -0.1757385988E-38  0.2923436870E-39  0.0000000000E+00  0.0000000000E+00 -0.9675325777E-36  0.1468647614E-37  0.1698689487E-36  0.0000000000E+00  0.0000000000E+00  0.0000000000E+00  0.2923436870E-39  0.1445003104E-35 -0.1757385988E-38  0.0000000000E+00  0.0000000000E+00  0.0000000000E+00
26  0.4242478914E-45  0.4868614852E-44  0.3919155255E-45  0.1365419099E-45  0.2712022366E-44  0.3144278317E-38 -0.2343854774E-39 -0.1011417025E-35  0.1610383655E-37  0.1585330954E-36  0.0000000000E+00 -0.2343854774E-39  0.1511850487E-35  0.3144278317E-38  0.3144278317E-38 -0.2343854774E-39  0.0000000000E+00  0.0000000000E+00 -0.1011417025E-35  0.1610383655E-37  0.1585330954E-36  0.0000000000E+00  0.0000000000E+00  0.0000000000E+00 -0.2343854774E-39  0.1511850487E-35  0.3144278317E-38  0.0000000000E+00  0.0000000000E+00  0.0000000000E+00
27 -0.2633559765E-47  0.2199092754E-44  0.2352176158E-45  0.5680013487E-46  0.9724076544E-45  0.2557049072E-38 -0.6557552385E-39 -0.1006638618E-35  0.1752051598E-37  0.1431167329E-36  0.0000000000E+00 -0.6557552385E-39  0.1515508581E-35  0.2557049072E-38  0.2557049072E-38 -0.6557552385E-39  0.0000000000E+00  0.0000000000E+00 -0.1006638618E-35  0.1752051598E-37  0.1431167329E-36  0.0000000000E+00  0.0000000000E+00  0.0000000000E+00 -0.6557552385E-39  0.1515508581E-35  0.2557049072E-38  0.0000000000E+00  0.0000000000E+00  0.0000000000E+00
28 -0.4309113792E-45  0.1562814485E-44  0.5032264383E-45  0.7596337593E-46 -0.4774481858E-47 -0.2965720692E-38 -0.3827409428E-39 -0.9958271445E-36  0.1865539962E-37  0.1431318940E-36  0.0000000000E+00 -0.3827409428E-39  0.1512272335E-35 -0.2965720692E-38 -0.2965720692E-38 -0.3827409428E-39  0.0000000000E+00  0.0000000000E+00 -0.9958271445E-36  0.1865539962E-37  0.1431318940E-36  0.0000000000E+00  0.0000000000E+00  0.0000000000E+00 -0.3827409428E-39  0.1512272335E-35 -0.2965720692E-38  0.0000000000E+00  0.0000000000E+00  0.0000000000E+00
29 -0.2719192191E-45  0.2908415101E-44  0.1710735355E-44  0.7473436472E-46  0.1103820755E-44 -0.8960614659E-38  0.5816421190E-39 -0.9344250026E-36  0.1924727232E-37  0.1613459528E-36  0.0000000000E+00  0.5816421190E-39  0.1430383915E-35 -0.8960614659E-38 -0.8960614659E-38  0.5816421190E-39  0.0000000000E+00  0.0000000000E+00 -0.9344250026E-36  0.1924727232E-37  0.1613459528E-36  0.0000000000E+00  0.0000000000E+00  0.0000000000E+00  0.5816421190E-39  0.1430383915E-35 -0.8960614659E-38  0.0000000000E+00  0.0000000000E+00  0.0000000000E+00
30  0.3807082564E-45  0.5387552191E-44  0.2649008524E-44 -0.5295541575E-46  0.3658476062E-44 -0.1242429854E-37  0.1859914738E-38 -0.8878250719E-36  0.1924592934E-37  0.1944566760E-36  0.0000000000E+00  0.1859914738E-38  0.1362137801E-35 -0.1242429854E-37 -0.1242429854E-37  0.1859914738E-38  0.0000000000E+00  0.0000000000E+00 -0.8878250719E-36  0.1924592934E-37  0.1944566760E-36  0.0000000000E+00  0.0000000000E+00  0.0000000000E+00  0.1859914738E-38  0.1362137801E-35 -0.1242429854E-37  0.0000000000E+00  0.0000000000E+00  0.0000000000E+00
31  0.3776042907E-45  0.7504280331E-44  0.2444238647E-44 -0.1059229256E-45  0.4140993072E-44 -0.1131603599E-37  0.2822009387E-38 -0.8673382084E-36  0.1794900222E-37  0.2283404456E-36  0.0000000000E+00  0.2822009387E-38  0.1326107933E-35 -0.1131603599E-37 -0.1131603599E-37  0.2822009387E-38  0.0000000000E+00  0.0000000000E+00 -0.8673382084E-36  0.1794900222E-37  0.2283404456E-36  0.0000000000E+00  0.0000000000E+00  0.0000000000E+00  0.2822009387E-38  0.1326107933E-35 -0.1131603599E-37  0.0000000000E+00  0.0000000000E+00  0.0000000000E+00
32  0.1605359227E-45  0.8788991920E-44  0.1528939640E-44  0.6392533040E-46  0.3798083649E-44 -0.7517885811E-38  0.3382076018E-38 -0.8800530751E-36  0.1584407028E-37  0.2540949836E-36  0.0000000000E+00  0.3382076018E-38  0.1337228516E-35 -0.7517885811E-38 -0.7517885811E-38  0.3382076018E-38  0.0000000000E+00  0.0000000000E+00 -0.8800530751E-36  0.1584407028E-37  0.2540949836E-36  0.0000000000E+00  0.0000000000E+00  0.0000000000E+00  0.3382076018E-38  0.1337228516E-35 -0.7517885811E-38  0.0000000000E+00  0.0000000000E+00  0.0000000000E+00
33  0.2487907129E-45  0.7972461923E-44  0.7102476758E-45  0.2345698410E-45  0.3923292123E-44 -0.2325226081E-38  0.3524327888E-38 -0.8991060079E-36  0.1314880913E-37  0.2662562919E-36  0.0000000000E+00  0.3524327888E-38  0.1359668472E-35 -0.2325226081E-38 -0.2325226081E-38  0.3524327888E-38  0.0000000000E+00  0.0000000000E+00 -0.8991060079E-36  0.1314880913E-37  0.2662562919E-36  0.0000000000E+00  0.0000000000E+00  0.0000000000E+00  0.3524327888E-38  0.1359668472E-35 -0.2325226081E-38  0.0000000000E+00  0.0000000000E+00  0.0000000000E+00
34  0.2749461465E-45  0.5793871449E-44  0.3294826481E-45  0.2931091128E-45  0.3671973093E-44  0.1656577059E-38  0.3495545964E-38 -0.9126357876E-36  0.1097958542E-37  0.2679950155E-36  0.0000000000E+00  0.3495545964E-38  0.1378307241E-35  0.1656577059E-38  0.1656577059E-38  0.3495545964E-38  0.0000000000E+00  0.0000000000E+00 -0.9126357876E-36  0.1097958542E-37  0.2679950155E-36  0.0000000000E+00  0.0000000000E+00  0.0000000000E+00  0.3495545964E-38  0.1378307241E-35  0.1656577059E-38  0.0000000000E+00  0.0000000000E+00  0.0000000000E+00
35 -0.7455493790E-46  0.4193489463E-44  0.1774440991E-45  0.3222779246E-45  0.2733324481E-44  0.2523256622E-38  0.3557056392E-38 -0.9059886900E-36  0.1014220657E-37  0.2676485162E-36  0.0000000000E+00  0.3557056392E-38  0.1372090137E-35  0.2523256622E-38  0.2523256622E-38  0.3557056392E-38  0.0000000000E+00  0.0000000000E+00 -0.9059886900E-36  0.1014220657E-37  0.2676485162E-36  0.0000000000E+00  0.0000000000E+00  0.0000000000E+00  0.3557056392E-38  0.1372090137E-35  0.2523256622E-38  0.0000000000E+00  0.0000000000E+00  0.0000000000E+00
36 -0.2126546037E-45  0.4304080345E-44 -0.2276173221E-46  0.2980757303E-45  0.2835102860E-44  0.1672857148E-39  0.3982182156E-38 -0.8909036064E-36  0.1055870914E-37  0.2756282451E-36  0.0000000000E+00  0.3982182156E-38  0.1356072217E-35  0.1672857148E-39  0.1672857148E-39  0.3982182156E-38  0.0000000000E+00  0.0000000000E+00 -0.8909036064E-36  0.1055870914E-37  0.2756282451E-36  0.0000000000E+00  0.0000000000E+00  0.0000000000E+00  0.3982182156E-38  0.1356072217E-35  0.1672857148E-39  0.0000000000E+00  0.0000000000E+00  0.0000000000E+00
37  0.7329522030E-46  0.5247421929E-44 -0.8098397802E-46  0.2063835763E-45  0.4066707250E-44 -0.2848678125E-38  0.4758645567E-38 -0.8578358516E-36  0.1090078209E-37  0.2942260975E-36  0.0000000000E+00  0.4758645567E-38  0.1312672981E-35 -0.2848678125E-38 -0.2848678125E-38  0.4758645567E-38  0.0000000000E+00  0.0000000000E+00 -0.8578358516E-36  0.1090078209E-37  0.2942260975E-36  0.0000000000E+00  0.0000000000E+00  0.0000000000E+00  0.4758645567E-38  0.1312672981E-35 -0.2848678125E-38  0.0000000000E+00  0.0000000000E+00  0.0000000000E+00
38  0.3902965498E-45  0.6099275857E-44  0.4047054898E-45  0.2075204371E-45  0.5140122301E-44 -0.4324356799E-38  0.5670393865E-38 -0.8309168098E-36  0.1004666752E-37  0.3203563789E-36  0.0000000000E+00  0.5670393865E-38  0.1274038982E-35 -0.4324356799E-38 -0.4324356799E-38  0.5670393865E-38  0.0000000000E+00  0.0000000000E+00 -0.8309168098E-36  0.1004666752E-37  0.3203563789E-36  0.0000000000E+00  0.0000000000E+00  0.0000000000E+00  0.5670393865E-38  0.1274038982E-35 -0.4324356799E-38  0.0000000000E+00  0.0000000000E+00  0.0000000000E+00
39  0.4937951316E-45  0.6569654836E-44  0.1053962595E-44  0.3551398276E-45  0.5481883270E-44 -0.3182153267E-38  0.6401977384E-38 -0.8165167514E-36  0.7665156536E-38  0.3457477612E-36  0.0000000000E+00  0.6401977384E-38  0.1249741093E-35 -0.3182153267E-38 -0.3182153267E-38  0.6401977384E-38  0.0000000000E+00  0.0000000000E+00 -0.8165167514E-36  0.7665156536E-38  0.3457477612E-36  0.0000000000E+00  0.0000000000E+00  0.0000000000E+00  0.6401977384E-38  0.1249741093E-35 -0.3182153267E-38  0.0000000000E+00  0.0000000000E+00  0.0000000000E+00
40  0.5889717017E-45  0.6663796190E-44  0.1252437305E-44  0.5028278116E-45  0.5638795280E-44 -0.4029818052E-39  0.6875421016E-38 -0.8147553764E-36  0.4796348961E-38  0.3651350103E-36  0.0000000000E+00  0.6875421016E-38  0.1242627106E-35 -0.4029818052E-39 -0.4029818052E-39  0.6875421016E-38  0.0000000000E+00  0.0000000000E+00 -0.8147553764E-36  0.4796348961E-38  0.3651350103E-36  0.0000000000E+00  0.0000000000E+00  0.0000000000E+00  0.6875421016E-38  0.1242627106E-35 -0.4029818052E-39  0.0000000000E+00  0.0000000000E+00  0.0000000000E+00
41  0.9326535596E-45  0.6723950451E-44  0.1020862109E-44  0.5697025835E-45  0.6534047932E-44  0.2560420581E-38  0.7124812759E-38 -0.8179582904E-36  0.2443818840E-38  0.3772689424E-36  0.0000000000E+00  0.7124812759E-38  0.1244373237E-35  0.2560420581E-38  0.2560420581E-38  0.7124812759E-38  0.0000000000E+00  0.0000000000E+00 -0.8179582904E-36  0.2443818840E-38  0.3772689424E-36  0.0000000000E+00  0.0000000000E+00  0.0000000000E+00  0.7124812759E-38  0.1244373237E-35  0.2560420581E-38  0.0000000000E+00  0.0000000000E+00  0.0000000000E+00
42  0.1316917722E-44  0.7192220006E-44  0.7359175577E-45  0.5977860401E-45  0.7887978160E-44  0.4210046140E-38  0.7310581460E-38 -0.8200155441E-36  0.1101727207E-38  0.3851136682E-36  0.0000000000E+00  0.7310581460E-38  0.1247474481E-35  0.4210046140E-38  0.4210046140E-38  0.7310581460E-38  0.0000000000E+00  0.0000000000E+00 -0.8200155441E-36  0.1101727207E-38  0.3851136682E-36  0.0000000000E+00  0.0000000000E+00  0.0000000000E+00  0.7310581460E-38  0.1247474481E-35  0.4210046140E-38  0.0000000000E+00  0.0000000000E+00  0.0000000000E+00
43  0.1497365490E-44  0.8232243400E-44  0.5331325858E-45  0.5798179472E-45  0.9071381054E-44  0.4352779518E-38  0.7588515447E-38 -0.8117224069E-36  0.3460607235E-39  0.3931765440E-36  0.0000000000E+00  0.7588515447E-38  0.1237770264E-35  0.4352779518E-38  0.4352779518E-38  0.7588515447E-38  0.0000000000E+00  0.0000000000E+00 -0.8117224069E-36  0.3460607235E-39  0.3931765440E-36  0.0000000000E+00  0.0000000000E+00  0.0000000000E+00  0.7588515447E-38  0.1237770264E-35  0.4352779518E-38  0.0000000000E+00  0.0000000000E+00  0.0000000000E+00
44  0.1669002349E-44  0.9462643894E-44  0.4719516449E-45  0.5000674515E-45  0.1024548141E-43  0.3906233283E-38  0.8042861697E-38 -0.7963711656E-36 -0.5830707255E-39  0.4053764816E-36  0.0000000000E+00  0.8042861697E-38  0.1217856656E-35  0.3906233283E-38  0.3906233283E-38  0.8042861697E-38  0.0000000000E+00  0.0000000000E+00 -0.7963711656E-36 -0.5830707255E-39  0.4053764816E-36  0.0000000000E+00  0.0000000000E+00  0.0000000000E+00  0.8042861697E-38  0.1217856656E-35  0.3906233283E-38  0.0000000000E+00  0.0000000000E+00  0.0000000000E+00
45  0.1950674993E-44  0.1036269819E-43  0.5763418225E-45  0.4090248922E-45  0.1143698872E-43  0.3386339134E-38  0.8607013045E-38 -0.7775258538E-36 -0.2052567513E-38  0.4217770634E-36  0.0000000000E+00  0.8607013045E-38  0.1191509865E-35  0.3386339134E-38  0.3386339134E-38  0.8607013045E-38  0.0000000000E+00  0.0000000000E+00 -0.7775258538E-36 -0.2052567513E-38  0.4217770634E-36  0.0000000000E+00  0.0000000000E+00  0.0000000000E+00  0.8607013045E-38  0.1191509865E-35  0.3386339134E-38  0.0000000000E+00  0.0000000000E+00  0.0000000000E+00
46  0.2141970315E-44  0.1064539665E-43  0.7589002791E-45  0.3482335749E-45  0.1205992588E-43  0.3301753292E-38  0.9208521421E-38 -0.7605793273E-36 -0.3929935653E-38  0.4406380477E-36  0.0000000000E+00  0.9208521421E-38  0.1166342435E-35  0.3301753292E-38  0.3301753292E-38  0.9208521421E-38  0.0000000000E+00  0.0000000000E+00 -0.7605793273E-36 -0.3929935653E-38  0.4406380477E-36  0.0000000000E+00  0.0000000000E+00  0.0000000000E+00  0.9208521421E-38  0.1166342435E-35  0.3301753292E-38  0.0000000000E+00  0.0000000000E+00  0.0000000000E+00
47  0.2293836624E-44  0.1059979364E-43  0.8848333622E-45  0.3039969846E-45  0.1246474724E-43  0.4021682399E-38  0.9746998465E-38 -0.7490968971E-36 -0.5920540119E-38  0.4592304668E-36  0.0000000000E+00  0.9746998465E-38  0.1148052745E-35  0.4021682399E-38  0.4021682399E-38  0.9746998465E-38  0.0000000000E+00  0.0000000000E+00 -0.7490968971E-36 -0.5920540119E-38  0.4592304668E-36  0.0000000000E+00  0.0000000000E+00  0.0000000000E+00  0.9746998465E-38  0.1148052745E-35  0.4021682399E-38  0.0000000000E+00  0.0000000000E+00  0.0000000000E+00
48  0.2571351947E-44  0.1055549343E-43  0.9662890629E-45  0.2576967788E-45  0.1315140121E-43  0.5283520664E-38  0.1015211044E-37 -0.7442978407E-36 -0.7768562311E-38  0.4749854440E-36  0.0000000000E+00  0.1015211044E-37  0.1139403709E-35  0.5283520664E-38  0.5283520664E-38  0.1015211044E-37  0.0000000000E+00  0.0000000000E+00 -0.7442978407E-36 -0.7768562311E-38  0.4749854440E-36  0.0000000000E+00  0.0000000000E+00  0.0000000000E+00  0.1015211044E-37  0.1139403709E-35  0.5283520664E-38  0.0000000000E+00  0.0000000000E+00  0.0000000000E+00
49  0.2935295700E-44  0.1067474074E-43  0.1022470546E-44  0.2134940050E-45  0.1405511874E-43  0.6856211792E-38  0.1042605591E-37 -0.7406295648E-36 -0.9502014937E-38  0.4869213495E-36  0.0000000000E+00  0.1042605591E-37  0.1132759136E-35  0.6856211792E-38  0.6856211792E-38  0.1042605591E-37  0.0000000000E+00  0.0000000000E+00 -0.7406295648E-36 -0.9502014937E-38  0.4869213495E-36  0.0000000000E+00  0.0000000000E+00  0.0000000000E+00  0.1042605591E-37  0.1132759136E-35  0.6856211792E-38  0.0000000000E+00  0.0000000000E+00  0.0000000000E+00
50  0.3168824617E-44  0.1089615155E-43  0.1029599794E-44  0.1827572949E-45  0.1466399556E-43  0.8210253084E-38  0.1065163723E-37 -0.7361916090E-36 -0.1111180000E-37  0.4965761093E-36  0.0000000000E+00  0.1065163723E-37  0.1125717625E-35  0.8210253084E-38  0.8210253084E-38  0.1065163723E-37  0.0000000000E+00  0.0000000000E+00 -0.7361916090E-36 -0.1111180000E-37  0.4965761093E-36  0.0000000000E+00  0.0000000000E+00  0.0000000000E+00  0.1065163723E-37  0.1125717625E-35  0.8210253084E-38  0.0000000000E+00  0.0000000000E+00  0.0000000000E+00
51  0.3187816840E-44  0.1102116672E-43  0.9880418349E-45  0.1669658079E-45  0.1469554053E-43  0.8869807148E-38  0.1091279931E-37 -0.7282096262E-36 -0.1261064987E-37  0.5060317911E-36  0.0000000000E+00  0.1091279931E-37  0.1114357888E-35  0.8869807148E-38  0.8869807148E-38  0.1091279931E-37  0.0000000000E+00  0.0000000000E+00 -0.7282096262E-36 -0.1261064987E-37  0.5060317911E-36  0.0000000000E+00  0.0000000000E+00  0.0000000000E+00  0.1091279931E-37  0.1114357888E-35  0.8869807148E-38  0.0000000000E+00  0.0000000000E+00  0.0000000000E+00
52  0.3025979395E-44  0.1077355087E-43  0.9570226544E-45  0.1603589170E-45  0.1408835812E-43  0.8828058290E-38  0.1127540199E-37 -0.7166453870E-36 -0.1397193910E-37  0.5174107432E-36  0.0000000000E+00  0.1127540199E-37  0.1098280564E-35  0.8828058290E-38  0.8828058290E-38  0.1127540199E-37  0.0000000000E+00  0.0000000000E+00 -0.7166453870E-36 -0.1397193910E-37  0.5174107432E-36  0.0000000000E+00  0.0000000000E+00  0.0000000000E+00  0.1127540199E-37  0.1098280564E-35  0.8828058290E-38  0.0000000000E+00  0.0000000000E+00  0.0000000000E+00
53  0.2819005751E-44  0.1012514536E-43  0.9522445696E-45  0.1607376399E-45  0.1320633393E-43  0.8616977599E-38  0.1171763405E-37 -0.7035400541E-36 -0.1530643626E-37  0.5312746612E-36  0.0000000000E+00  0.1171763405E-37  0.1079740435E-35  0.8616977599E-38  0.8616977599E-38  0.1171763405E-37  0.0000000000E+00  0.0000000000E+00 -0.7035400541E-36 -0.1530643626E-37  0.5312746612E-36  0.0000000000E+00  0.0000000000E+00  0.0000000000E+00  0.1171763405E-37  0.1079740435E-35  0.8616977599E-38  0.0000000000E+00  0.0000000000E+00  0.0000000000E+00
54  0.2620220506E-44  0.9226030357E-44  0.9638150879E-45  0.1636107513E-45  0.1226504342E-43  0.8662770875E-38  0.1216585971E-37 -0.6929304546E-36 -0.1671537668E-37  0.5464501785E-36  0.0000000000E+00  0.1216585971E-37  0.1064164473E-35  0.8662770875E-38  0.8662770875E-38  0.1216585971E-37  0.0000000000E+00  0.0000000000E+00 -0.6929304546E-36 -0.1671537668E-37  0.5464501785E-36  0.0000000000E+00  0.0000000000E+00  0.0000000000E+00  0.1216585971E-37  0.1064164473E-35  0.8662770875E-38  0.0000000000E+00  0.0000000000E+00  0.0000000000E+00