TITLE="fun3d_case_title"
VARIABLES="Iteration" "R_1" "R_2" "R_3" "R_4" "R_5" "C_L" "C_D" "C_M_x" "C_M_y" "C_M_z" "Wall Time" "C_x" "C_y" "C_z" "C_Lp" "C_Dp" "C_Lv" "C_Dv" "C_M_xp" "C_M_yp" "C_M_zp" "C_M_xv" "C_M_yv" "C_M_zv" "C_xp" "C_yp" "C_zp" "C_xv" "C_yv" "C_zv"
ZONE  I=100 F=POINT
1  0.0000000000E+00  0.0000000000E+00  0.0000000000E+00  0.0000000000E+00  0.0000000000E+00  0.0000000000E+00  0.0000000000E+00  0.0000000000E+00  0.0000000000E+00  0.0000000000E+00  0.0000000000E+00  0.0000000000E+00  0.0000000000E+00  0.0000000000E+00  0.0000000000E+00  0.0000000000E+00  0.0000000000E+00  0.0000000000E+00  0.0000000000E+00  0.0000000000E+00  0.0000000000E+00  0.0000000000E+00  0.0000000000E+00  0.0000000000E+00  0.0000000000E+00  0.0000000000E+00  0.0000000000E+00  0.0000000000E+00  0.0000000000E+00  0.0000000000E+00
2 -0.4851933229E-49 -0.1533863113E-49 -0.4923400963E-49  0.2486081311E-54 -0.1284911807E-48  0.5250367099E-46 -0.1690530997E-46 -0.2630987064E-44  0.3035155201E-46  0.8769221854E-45  0.0000000000E+00 -0.1690530997E-46  0.4379700544E-44  0.5250367099E-46  0.5250367099E-46 -0.1690530997E-46  0.0000000000E+00  0.0000000000E+00 -0.2630987064E-44  0.3035155201E-46  0.8769221854E-45  0.0000000000E+00  0.0000000000E+00  0.0000000000E+00 -0.1690530997E-46  0.4379700544E-44  0.5250367099E-46  0.0000000000E+00  0.0000000000E+00  0.0000000000E+00
3  0.1493114667E-49 -0.1929175082E-51 -0.1386529699E-49 -0.2052192962E-50  0.3846755656E-49  0.4097789639E-45  0.3620065427E-46 -0.1080588067E-43 -0.1273123125E-46  0.4222275764E-45  0.0000000000E+00  0.3620065427E-46  0.1358929960E-43  0.4097789639E-45  0.4097789639E-45  0.3620065427E-46  0.0000000000E+00  0.0000000000E+00 -0.1080588067E-43 -0.1273123125E-46  0.4222275764E-45  0.0000000000E+00  0.0000000000E+00  0.0000000000E+00  0.3620065427E-46  0.1358929960E-43  0.4097789639E-45  0.0000000000E+00  0.0000000000E+00  0.0000000000E+00
4 -0.6378488938E-45 -0.1243326778E-45 -0.9708667382E-46 -0.1758671844E-48 -0.1771592744E-44  0.1088654704E-39 -0.1882624659E-40  0.2513239590E-37 -0.2058726726E-40 -0.2589089182E-38  0.0000000000E+00 -0.1882624659E-40 -0.3228737218E-37  0.1088654704E-39  0.1088654704E-39 -0.1882624659E-40  0.0000000000E+00  0.0000000000E+00  0.2513239590E-37 -0.2058726726E-40 -0.2589089182E-38  0.0000000000E+00  0.0000000000E+00  0.0000000000E+00 -0.1882624659E-40 -0.3228737218E-37  0.1088654704E-39  0.0000000000E+00  0.0000000000E+00  0.0000000000E+00
5 -0.8612023572E-43 -0.1052544122E-43 -0.2606712290E-43 -0.8888483941E-46 -0.2019904248E-42 -0.1674179277E-39 -0.6351259145E-39  0.1930962199E-37 -0.6096475795E-39 -0.4210856572E-38  0.0000000000E+00 -0.6351259145E-39 -0.3066289480E-37 -0.1674179277E-39 -0.1674179277E-39 -0.6351259145E-39  0.0000000000E+00  0.0000000000E+00  0.1930962199E-37 -0.6096475795E-39 -0.4210856572E-38  0.0000000000E+00  0.0000000000E+00  0.0000000000E+00 -0.6351259145E-39 -0.3066289480E-37 -0.1674179277E-39  0.0000000000E+00  0.0000000000E+00  0.0000000000E+00
6 -0.9708676614E-43 -0.1265081152E-43 -0.9148931970E-43  0.3631311622E-44 -0.2701220627E-42 -0.7182720196E-38 -0.2146485862E-38 -0.3207254057E-36 -0.2290964177E-38  0.2603795823E-37  0.0000000000E+00 -0.2146485862E-38  0.3958259934E-36 -0.7182720196E-38 -0.7182720196E-38 -0.2146485862E-38  0.0000000000E+00  0.0000000000E+00 -0.3207254057E-36 -0.2290964177E-38  0.2603795823E-37  0.0000000000E+00  0.0000000000E+00  0.0000000000E+00 -0.2146485862E-38  0.3958259934E-36 -0.7182720196E-38  0.0000000000E+00  0.0000000000E+00  0.0000000000E+00
7  0.1442978409E-42 -0.2851220128E-43 -0.7392403766E-42  0.1745823013E-43 -0.7911206961E-41  0.1710258787E-38 -0.4065981698E-38  0.2253788790E-38 -0.7996415386E-38 -0.1008688367E-37  0.0000000000E+00 -0.4065981698E-38  0.5699912052E-38  0.1710258787E-38  0.1710258787E-38 -0.4065981698E-38  0.0000000000E+00  0.0000000000E+00  0.2253788790E-38 -0.7996415386E-38 -0.1008688367E-37  0.0000000000E+00  0.0000000000E+00  0.0000000000E+00 -0.4065981698E-38  0.5699912052E-38  0.1710258787E-38  0.0000000000E+00  0.0000000000E+00  0.0000000000E+00
8  0.7716779172E-42 -0.9379983078E-43 -0.8885112529E-42 -0.4848952978E-43 -0.1204698214E-40 -0.1328808818E-37 -0.6750847915E-38 -0.1605617799E-35 -0.1130688118E-37  0.8663011499E-37  0.0000000000E+00 -0.6750847915E-38  0.2252150511E-35 -0.1328808818E-37 -0.1328808818E-37 -0.6750847915E-38  0.0000000000E+00  0.0000000000E+00 -0.1605617799E-35 -0.1130688118E-37  0.8663011499E-37  0.0000000000E+00  0.0000000000E+00  0.0000000000E+00 -0.6750847915E-38  0.2252150511E-35 -0.1328808818E-37  0.0000000000E+00  0.0000000000E+00  0.0000000000E+00
9 -0.3324079858E-42 -0.1572141938E-41 -0.2573255955E-41  0.1158372541E-43 -0.2813515319E-40 -0.1342119739E-37 -0.1018925662E-37 -0.2455988880E-35 -0.1632502102E-37  0.8019251548E-37  0.0000000000E+00 -0.1018925662E-37  0.3477800321E-35 -0.1342119739E-37 -0.1342119739E-37 -0.1018925662E-37  0.0000000000E+00  0.0000000000E+00 -0.2455988880E-35 -0.1632502102E-37  0.8019251548E-37  0.0000000000E+00  0.0000000000E+00  0.0000000000E+00 -0.1018925662E-37  0.3477800321E-35 -0.1342119739E-37  0.0000000000E+00  0.0000000000E+00  0.0000000000E+00
10 -0.1411230620E-41 -0.8764999178E-41 -0.5998632156E-41 -0.3098709326E-44 -0.1210330426E-40  0.4992286639E-37 -0.1139856494E-37 -0.2530586259E-35 -0.2025841752E-37 -0.1070199054E-37  0.0000000000E+00 -0.1139856494E-37  0.3666206214E-35  0.4992286639E-37  0.4992286639E-37 -0.1139856494E-37  0.0000000000E+00  0.0000000000E+00 -0.2530586259E-35 -0.2025841752E-37 -0.1070199054E-37  0.0000000000E+00  0.0000000000E+00  0.0000000000E+00 -0.1139856494E-37  0.3666206214E-35  0.4992286639E-37  0.0000000000E+00  0.0000000000E+00  0.0000000000E+00
11 -0.1943760409E-41 -0.1183487311E-40 -0.3962614735E-41 -0.5773353680E-43 -0.6534827511E-41  0.1800063460E-37 -0.1584870324E-37 -0.2176831051E-35  0.2729884947E-38 -0.1796785182E-36  0.0000000000E+00 -0.1584870324E-37  0.3267855307E-35  0.1800063460E-37  0.1800063460E-37 -0.1584870324E-37  0.0000000000E+00  0.0000000000E+00 -0.2176831051E-35  0.2729884947E-38 -0.1796785182E-36  0.0000000000E+00  0.0000000000E+00  0.0000000000E+00 -0.1584870324E-37  0.3267855307E-35  0.1800063460E-37  0.0000000000E+00  0.0000000000E+00  0.0000000000E+00
12 -0.1536665961E-41 -0.1149347831E-40 -0.2901453979E-41 -0.9683426889E-43 -0.6495133017E-41 -0.4318871883E-37 -0.1404221067E-37 -0.1459330753E-35  0.2647418262E-37 -0.2694303890E-36  0.0000000000E+00 -0.1404221067E-37  0.2282869648E-35 -0.4318871883E-37 -0.4318871883E-37 -0.1404221067E-37  0.0000000000E+00  0.0000000000E+00 -0.1459330753E-35  0.2647418262E-37 -0.2694303890E-36  0.0000000000E+00  0.0000000000E+00  0.0000000000E+00 -0.1404221067E-37  0.2282869648E-35 -0.4318871883E-37  0.0000000000E+00  0.0000000000E+00  0.0000000000E+00
13 -0.1597578008E-41 -0.6316215127E-41 -0.1559169176E-41 -0.8103626680E-43 -0.7784402799E-41 -0.8252177954E-37 -0.5544510517E-38 -0.1054243510E-35  0.3800927564E-37 -0.1430181290E-36  0.0000000000E+00 -0.5544510517E-38  0.1749634112E-35 -0.8252177954E-37 -0.8252177954E-37 -0.5544510517E-38  0.0000000000E+00  0.0000000000E+00 -0.1054243510E-35  0.3800927564E-37 -0.1430181290E-36  0.0000000000E+00  0.0000000000E+00  0.0000000000E+00 -0.5544510517E-38  0.1749634112E-35 -0.8252177954E-37  0.0000000000E+00  0.0000000000E+00  0.0000000000E+00
14 -0.1445982970E-41 -0.6972833567E-41 -0.7781673540E-42 -0.2601464573E-43 -0.6545960318E-41 -0.7521597336E-37  0.3550585419E-38 -0.7155512019E-36  0.2739603124E-37  0.8691121969E-37  0.0000000000E+00  0.3550585419E-38  0.1221593450E-35 -0.7521597336E-37 -0.7521597336E-37  0.3550585419E-38  0.0000000000E+00  0.0000000000E+00 -0.7155512019E-36  0.2739603124E-37  0.8691121969E-37  0.0000000000E+00  0.0000000000E+00  0.0000000000E+00  0.3550585419E-38  0.1221593450E-35 -0.7521597336E-37  0.0000000000E+00  0.0000000000E+00  0.0000000000E+00
15 -0.6063470126E-42 -0.4671080147E-41 -0.9313638992E-42 -0.8538362295E-44 -0.2619445655E-41 -0.2654513834E-37  0.7937327962E-38 -0.7722045198E-36  0.4424434646E-39  0.2970711068E-36  0.0000000000E+00  0.7937327962E-38  0.1211563730E-35 -0.2654513834E-37 -0.2654513834E-37  0.7937327962E-38  0.0000000000E+00  0.0000000000E+00 -0.7722045198E-36  0.4424434646E-39  0.2970711068E-36  0.0000000000E+00  0.0000000000E+00  0.0000000000E+00  0.7937327962E-38  0.1211563730E-35 -0.2654513834E-37  0.0000000000E+00  0.0000000000E+00  0.0000000000E+00
16 -0.2241205521E-42 -0.5731608327E-41 -0.9598127723E-42 -0.7577530874E-43 -0.4095473769E-41  0.1377074296E-37  0.5309102188E-38 -0.1088198604E-35 -0.1217011620E-37  0.3634096330E-36  0.0000000000E+00  0.5309102188E-38  0.1573567249E-35  0.1377074296E-37  0.1377074296E-37  0.5309102188E-38  0.0000000000E+00  0.0000000000E+00 -0.1088198604E-35 -0.1217011620E-37  0.3634096330E-36  0.0000000000E+00  0.0000000000E+00  0.0000000000E+00  0.5309102188E-38  0.1573567249E-35  0.1377074296E-37  0.0000000000E+00  0.0000000000E+00  0.0000000000E+00
17  0.2154528865E-42 -0.8164499095E-41 -0.6385884556E-42 -0.6726210044E-43 -0.7994487060E-41  0.2495350606E-37 -0.1151284613E-39 -0.1314028017E-35  0.1624031434E-38  0.2755250192E-36  0.0000000000E+00 -0.1151284613E-39  0.1873321147E-35  0.2495350606E-37  0.2495350606E-37 -0.1151284613E-39  0.0000000000E+00  0.0000000000E+00 -0.1314028017E-35  0.1624031434E-38  0.2755250192E-36  0.0000000000E+00  0.0000000000E+00  0.0000000000E+00 -0.1151284613E-39  0.1873321147E-35  0.2495350606E-37  0.0000000000E+00  0.0000000000E+00  0.0000000000E+00
18  0.5003374244E-42 -0.8624092198E-41 -0.1080203844E-41  0.1992328587E-44 -0.6188876552E-41  0.1251538857E-37 -0.4551354618E-38 -0.1417655041E-35  0.3052285027E-37  0.1274159524E-36  0.0000000000E+00 -0.4551354618E-38  0.2067388412E-35  0.1251538857E-37  0.1251538857E-37 -0.4551354618E-38  0.0000000000E+00  0.0000000000E+00 -0.1417655041E-35  0.3052285027E-37  0.1274159524E-36  0.0000000000E+00  0.0000000000E+00  0.0000000000E+00 -0.4551354618E-38  0.2067388412E-35  0.1251538857E-37  0.0000000000E+00  0.0000000000E+00  0.0000000000E+00
19 -0.2946766850E-42 -0.8195529389E-41 -0.1166622438E-41  0.2928584703E-43 -0.3059524031E-41 -0.1072225912E-37 -0.5716146807E-38 -0.1369114899E-35  0.5315453190E-37  0.2650645576E-37  0.0000000000E+00 -0.5716146807E-38  0.2068823948E-35 -0.1072225912E-37 -0.1072225912E-37 -0.5716146807E-38  0.0000000000E+00  0.0000000000E+00 -0.1369114899E-35  0.5315453190E-37  0.2650645576E-37  0.0000000000E+00  0.0000000000E+00  0.0000000000E+00 -0.5716146807E-38  0.2068823948E-35 -0.1072225912E-37  0.0000000000E+00  0.0000000000E+00  0.0000000000E+00
20 -0.1037816483E-41 -0.6995957414E-41 -0.9860121262E-42  0.2845361217E-43 -0.1773313997E-41 -0.2576973303E-37 -0.3473231020E-38 -0.1274723020E-35  0.5487882554E-37  0.3263743396E-37  0.0000000000E+00 -0.3473231020E-38  0.1975468296E-35 -0.2576973303E-37 -0.2576973303E-37 -0.3473231020E-38  0.0000000000E+00  0.0000000000E+00 -0.1274723020E-35  0.5487882554E-37  0.3263743396E-37  0.0000000000E+00  0.0000000000E+00  0.0000000000E+00 -0.3473231020E-38  0.1975468296E-35 -0.2576973303E-37  0.0000000000E+00  0.0000000000E+00  0.0000000000E+00
21 -0.8835977308E-42 -0.5318836227E-41 -0.6801111100E-42  0.5516409472E-43 -0.7187339510E-42 -0.2803436749E-37  0.1492125132E-39 -0.1142033113E-35  0.4063299077E-37  0.1163133251E-36  0.0000000000E+00  0.1492125132E-39  0.1782711039E-35 -0.2803436749E-37 -0.2803436749E-37  0.1492125132E-39  0.0000000000E+00  0.0000000000E+00 -0.1142033113E-35  0.4063299077E-37  0.1163133251E-36  0.0000000000E+00  0.0000000000E+00  0.0000000000E+00  0.1492125132E-39  0.1782711039E-35 -0.2803436749E-37  0.0000000000E+00  0.0000000000E+00  0.0000000000E+00
22 -0.3737424235E-42 -0.4668563625E-41  0.6973921383E-44  0.7967863233E-43 -0.8689277056E-43 -0.2369950990E-37  0.3349287485E-38 -0.1049826990E-35  0.2566265250E-37  0.2143389085E-36  0.0000000000E+00  0.3349287485E-38  0.1621484896E-35 -0.2369950990E-37 -0.2369950990E-37  0.3349287485E-38  0.0000000000E+00  0.0000000000E+00 -0.1049826990E-35  0.2566265250E-37  0.2143389085E-36  0.0000000000E+00  0.0000000000E+00  0.0000000000E+00  0.3349287485E-38  0.1621484896E-35 -0.2369950990E-37  0.0000000000E+00  0.0000000000E+00  0.0000000000E+00
23 -0.4961274016E-43 -0.4980832040E-41  0.3913143875E-42  0.5315419014E-43 -0.1000479471E-41 -0.1956084417E-37  0.4870752522E-38 -0.1017245789E-35  0.2038516252E-37  0.2799441294E-36  0.0000000000E+00  0.4870752522E-38  0.1547836837E-35 -0.1956084417E-37 -0.1956084417E-37  0.4870752522E-38  0.0000000000E+00  0.0000000000E+00 -0.1017245789E-35  0.2038516252E-37  0.2799441294E-36  0.0000000000E+00  0.0000000000E+00  0.0000000000E+00  0.4870752522E-38  0.1547836837E-35 -0.1956084417E-37  0.0000000000E+00  0.0000000000E+00  0.0000000000E+00
24  0.1926426344E-42 -0.5600474748E-41  0.3611943741E-42  0.4964933703E-44 -0.3279945292E-41 -0.1492896659E-37  0.4617806925E-38 -0.1006790187E-35  0.2179719747E-37  0.2970510129E-36  0.0000000000E+00  0.4617806925E-38  0.1518254536E-35 -0.1492896659E-37 -0.1492896659E-37  0.4617806925E-38  0.0000000000E+00  0.0000000000E+00 -0.1006790187E-35  0.2179719747E-37  0.2970510129E-36  0.0000000000E+00  0.0000000000E+00  0.0000000000E+00  0.4617806925E-38  0.1518254536E-35 -0.1492896659E-37  0.0000000000E+00  0.0000000000E+00  0.0000000000E+00
25  0.3723457672E-42 -0.5929244527E-41  0.2284938443E-42  0.9377707613E-44 -0.4990778201E-41 -0.7856332315E-38  0.3276616070E-38 -0.1064831096E-35  0.2141891739E-37  0.2825160987E-36  0.0000000000E+00  0.3276616070E-38  0.1598421326E-35 -0.7856332315E-38 -0.7856332315E-38  0.3276616070E-38  0.0000000000E+00  0.0000000000E+00 -0.1064831096E-35  0.2141891739E-37  0.2825160987E-36  0.0000000000E+00  0.0000000000E+00  0.0000000000E+00  0.3276616070E-38  0.1598421326E-35 -0.7856332315E-38  0.0000000000E+00  0.0000000000E+00  0.0000000000E+00
26  0.3911006736E-42 -0.6197877326E-41 -0.9650230118E-43  0.4895002915E-43 -0.4272931720E-41 -0.4000009042E-39  0.2060232696E-38 -0.1114536372E-35  0.1545467604E-37  0.2564170977E-36  0.0000000000E+00  0.2060232696E-38  0.1671277354E-35 -0.4000009042E-39 -0.4000009042E-39  0.2060232696E-38  0.0000000000E+00  0.0000000000E+00 -0.1114536372E-35  0.1545467604E-37  0.2564170977E-36  0.0000000000E+00  0.0000000000E+00  0.0000000000E+00  0.2060232696E-38  0.1671277354E-35 -0.4000009042E-39  0.0000000000E+00  0.0000000000E+00  0.0000000000E+00
27 -0.2729119779E-43 -0.5860257402E-41 -0.5381234422E-42  0.6079256408E-43 -0.2499308614E-41  0.4063185947E-38  0.1891987139E-38 -0.1123946712E-35  0.7592335309E-38  0.2406004776E-36  0.0000000000E+00  0.1891987139E-38  0.1688534329E-35  0.4063185947E-38  0.4063185947E-38  0.1891987139E-38  0.0000000000E+00  0.0000000000E+00 -0.1123946712E-35  0.7592335309E-38  0.2406004776E-36  0.0000000000E+00  0.0000000000E+00  0.0000000000E+00  0.1891987139E-38  0.1688534329E-35  0.4063185947E-38  0.0000000000E+00  0.0000000000E+00  0.0000000000E+00
28 -0.5631227041E-42 -0.5045447752E-41 -0.7059122735E-42  0.6755365808E-43 -0.1199829482E-41  0.2101527563E-38  0.2828663032E-38 -0.1104311421E-35  0.4485342740E-38  0.2487520527E-36  0.0000000000E+00  0.2828663032E-38  0.1667804030E-35  0.2101527563E-38  0.2101527563E-38  0.2828663032E-38  0.0000000000E+00  0.0000000000E+00 -0.1104311421E-35  0.4485342740E-38  0.2487520527E-36  0.0000000000E+00  0.0000000000E+00  0.0000000000E+00  0.2828663032E-38  0.1667804030E-35  0.2101527563E-38  0.0000000000E+00  0.0000000000E+00  0.0000000000E+00
29 -0.6339047228E-42 -0.4040033270E-41 -0.4830469191E-42  0.9075661685E-43 -0.4682910632E-42 -0.4798719694E-38  0.4579778695E-38 -0.1038622513E-35  0.8046002381E-38  0.2825130006E-36  0.0000000000E+00  0.4579778695E-38  0.1584043779E-35 -0.4798719694E-38 -0.4798719694E-38  0.4579778695E-38  0.0000000000E+00  0.0000000000E+00 -0.1038622513E-35  0.8046002381E-38  0.2825130006E-36  0.0000000000E+00  0.0000000000E+00  0.0000000000E+00  0.4579778695E-38  0.1584043779E-35 -0.4798719694E-38  0.0000000000E+00  0.0000000000E+00  0.0000000000E+00
30 -0.2614273009E-42 -0.3537850813E-41  0.1206214435E-42  0.9881940766E-43 -0.2618211983E-42 -0.1129515938E-37  0.6539270609E-38 -0.9802084291E-36  0.1321744172E-37  0.3355413152E-36  0.0000000000E+00  0.6539270609E-38  0.1507353045E-35 -0.1129515938E-37 -0.1129515938E-37  0.6539270609E-38  0.0000000000E+00  0.0000000000E+00 -0.9802084291E-36  0.1321744172E-37  0.3355413152E-36  0.0000000000E+00  0.0000000000E+00  0.0000000000E+00  0.6539270609E-38  0.1507353045E-35 -0.1129515938E-37  0.0000000000E+00  0.0000000000E+00  0.0000000000E+00
31  0.9951584868E-43 -0.3860542625E-41  0.6027732423E-42  0.7549997758E-43 -0.1544563576E-41 -0.1277628439E-37  0.7961909184E-38 -0.9514664168E-36  0.1325653372E-37  0.3871639022E-36  0.0000000000E+00  0.7961909184E-38  0.1464142303E-35 -0.1277628439E-37 -0.1277628439E-37  0.7961909184E-38  0.0000000000E+00  0.0000000000E+00 -0.9514664168E-36  0.1325653372E-37  0.3871639022E-36  0.0000000000E+00  0.0000000000E+00  0.0000000000E+00  0.7961909184E-38  0.1464142303E-35 -0.1277628439E-37  0.0000000000E+00  0.0000000000E+00  0.0000000000E+00
32  0.2523293445E-42 -0.4723724319E-41  0.6960006457E-42  0.5593963296E-43 -0.4051081517E-41 -0.7584821276E-38  0.8564962242E-38 -0.9441458177E-36  0.6080577274E-38  0.4192044819E-36  0.0000000000E+00  0.8564962242E-38  0.1442324259E-35 -0.7584821276E-38 -0.7584821276E-38  0.8564962242E-38  0.0000000000E+00  0.0000000000E+00 -0.9441458177E-36  0.6080577274E-38  0.4192044819E-36  0.0000000000E+00  0.0000000000E+00  0.0000000000E+00  0.8564962242E-38  0.1442324259E-35 -0.7584821276E-38  0.0000000000E+00  0.0000000000E+00  0.0000000000E+00
33  0.2777877604E-42 -0.5330459098E-41  0.4137531197E-42  0.5826183937E-43 -0.6126154833E-41  0.9309332212E-39  0.8443710122E-38 -0.9678043142E-36 -0.3644984598E-38  0.4278203313E-36  0.0000000000E+00  0.8443710122E-38  0.1463353719E-35  0.9309332212E-39  0.9309332212E-39  0.8443710122E-38  0.0000000000E+00  0.0000000000E+00 -0.9678043142E-36 -0.3644984598E-38  0.4278203313E-36  0.0000000000E+00  0.0000000000E+00  0.0000000000E+00  0.8443710122E-38  0.1463353719E-35  0.9309332212E-39  0.0000000000E+00  0.0000000000E+00  0.0000000000E+00
34  0.1711384825E-42 -0.5636279777E-41  0.1425887133E-43  0.6793988606E-43 -0.5968193485E-41  0.7181852833E-38  0.8136560504E-38 -0.9850138242E-36 -0.9245028881E-38  0.4218588597E-36  0.0000000000E+00  0.8136560504E-38  0.1482969867E-35  0.7181852833E-38  0.7181852833E-38  0.8136560504E-38  0.0000000000E+00  0.0000000000E+00 -0.9850138242E-36 -0.9245028881E-38  0.4218588597E-36  0.0000000000E+00  0.0000000000E+00  0.0000000000E+00  0.8136560504E-38  0.1482969867E-35  0.7181852833E-38  0.0000000000E+00  0.0000000000E+00  0.0000000000E+00
35 -0.1397596744E-42 -0.5192163207E-41 -0.3168081461E-42  0.6747902846E-43 -0.4394973469E-41  0.7925784227E-38  0.8216268437E-38 -0.9804135269E-36 -0.8333295067E-38  0.4185766835E-36  0.0000000000E+00  0.8216268437E-38  0.1482002893E-35  0.7925784227E-38  0.7925784227E-38  0.8216268437E-38  0.0000000000E+00  0.0000000000E+00 -0.9804135269E-36 -0.8333295067E-38  0.4185766835E-36  0.0000000000E+00  0.0000000000E+00  0.0000000000E+00  0.8216268437E-38  0.1482002893E-35  0.7925784227E-38  0.0000000000E+00  0.0000000000E+00  0.0000000000E+00
36 -0.4828031513E-42 -0.4231956358E-41 -0.3921104158E-42  0.6765039342E-43 -0.2886930297E-41  0.4122630234E-38  0.8886527469E-38 -0.9599080623E-36 -0.4394460386E-38  0.4302316031E-36  0.0000000000E+00  0.8886527469E-38  0.1463710845E-35  0.4122630234E-38  0.4122630234E-38  0.8886527469E-38  0.0000000000E+00  0.0000000000E+00 -0.9599080623E-36 -0.4394460386E-38  0.4302316031E-36  0.0000000000E+00  0.0000000000E+00  0.0000000000E+00  0.8886527469E-38  0.1463710845E-35  0.4122630234E-38  0.0000000000E+00  0.0000000000E+00  0.0000000000E+00
37 -0.5425043811E-42 -0.3144349735E-41 -0.1586517446E-42  0.7844859174E-43 -0.2173853763E-41  0.3752293803E-40  0.1000989646E-37 -0.9246031066E-36 -0.2974150747E-38  0.4572303807E-36  0.0000000000E+00  0.1000989646E-37  0.1420984576E-35  0.3752293803E-40  0.3752293803E-40  0.1000989646E-37  0.0000000000E+00  0.0000000000E+00 -0.9246031066E-36 -0.2974150747E-38  0.4572303807E-36  0.0000000000E+00  0.0000000000E+00  0.0000000000E+00  0.1000989646E-37  0.1420984576E-35  0.3752293803E-40  0.0000000000E+00  0.0000000000E+00  0.0000000000E+00
38 -0.3000332769E-42 -0.2655443140E-41  0.2787151707E-42  0.8611808359E-43 -0.2682080963E-41 -0.9198838744E-39  0.1119508923E-37 -0.8959644991E-36 -0.6461462774E-38  0.4923956445E-36  0.0000000000E+00  0.1119508923E-37  0.1379373826E-35 -0.9198838744E-39 -0.9198838744E-39  0.1119508923E-37  0.0000000000E+00  0.0000000000E+00 -0.8959644991E-36 -0.6461462774E-38  0.4923956445E-36  0.0000000000E+00  0.0000000000E+00  0.0000000000E+00  0.1119508923E-37  0.1379373826E-35 -0.9198838744E-39  0.0000000000E+00  0.0000000000E+00  0.0000000000E+00
39 -0.1739820933E-43 -0.2779786487E-41  0.5734199806E-42  0.7635484783E-43 -0.4589712771E-41  0.1413888520E-38  0.1204216057E-37 -0.8811145275E-36 -0.1264580025E-37  0.5240632305E-36  0.0000000000E+00  0.1204216057E-37  0.1351107482E-35  0.1413888520E-38  0.1413888520E-38  0.1204216057E-37  0.0000000000E+00  0.0000000000E+00 -0.8811145275E-36 -0.1264580025E-37  0.5240632305E-36  0.0000000000E+00  0.0000000000E+00  0.0000000000E+00  0.1204216057E-37  0.1351107482E-35  0.1413888520E-38  0.0000000000E+00  0.0000000000E+00  0.0000000000E+00
40  0.1459750519E-42 -0.3223137653E-41  0.5663820730E-42  0.6112989096E-43 -0.7140479183E-41  0.5149690947E-38  0.1244266230E-37 -0.8789776988E-36 -0.1754151830E-37  0.5453393057E-36  0.0000000000E+00  0.1244266230E-37  0.1340553112E-35  0.5149690947E-38  0.5149690947E-38  0.1244266230E-37  0.0000000000E+00  0.0000000000E+00 -0.8789776988E-36 -0.1754151830E-37  0.5453393057E-36  0.0000000000E+00  0.0000000000E+00  0.0000000000E+00  0.1244266230E-37  0.1340553112E-35  0.5149690947E-38  0.0000000000E+00  0.0000000000E+00  0.0000000000E+00
41  0.1648878286E-42 -0.3573252505E-41  0.2927586801E-42  0.5488756820E-43 -0.8790890498E-41  0.8096432214E-38  0.1251236939E-37 -0.8813402839E-36 -0.1914622473E-37  0.5556705628E-36  0.0000000000E+00  0.1251236939E-37  0.1340660173E-35  0.8096432214E-38  0.8096432214E-38  0.1251236939E-37  0.0000000000E+00  0.0000000000E+00 -0.8813402839E-36 -0.1914622473E-37  0.5556705628E-36  0.0000000000E+00  0.0000000000E+00  0.0000000000E+00  0.1251236939E-37  0.1340660173E-35  0.8096432214E-38  0.0000000000E+00  0.0000000000E+00  0.0000000000E+00
42  0.3493200760E-43 -0.3520750121E-41 -0.5922888042E-43  0.5646445741E-43 -0.8531150182E-41  0.9178564677E-38  0.1251740903E-37 -0.8804127186E-36 -0.1862511607E-37  0.5598767969E-36  0.0000000000E+00  0.1251740903E-37  0.1340920176E-35  0.9178564677E-38  0.9178564677E-38  0.1251740903E-37  0.0000000000E+00  0.0000000000E+00 -0.8804127186E-36 -0.1862511607E-37  0.5598767969E-36  0.0000000000E+00  0.0000000000E+00  0.0000000000E+00  0.1251740903E-37  0.1340920176E-35  0.9178564677E-38  0.0000000000E+00  0.0000000000E+00  0.0000000000E+00
43 -0.2146043962E-42 -0.2881367129E-41 -0.2738868561E-42  0.6093335714E-43 -0.7044869941E-41  0.8873190267E-38  0.1269830772E-37 -0.8714465551E-36 -0.1860479711E-37  0.5649135451E-36  0.0000000000E+00  0.1269830772E-37  0.1331614183E-35  0.8873190267E-38  0.8873190267E-38  0.1269830772E-37  0.0000000000E+00  0.0000000000E+00 -0.8714465551E-36 -0.1860479711E-37  0.5649135451E-36  0.0000000000E+00  0.0000000000E+00  0.0000000000E+00  0.1269830772E-37  0.1331614183E-35  0.8873190267E-38  0.0000000000E+00  0.0000000000E+00  0.0000000000E+00
44 -0.4399281763E-42 -0.2116183854E-41 -0.2429824737E-42  0.6756379417E-43 -0.5637437938E-41  0.8578386367E-38  0.1316657377E-37 -0.8556891653E-36 -0.2052010077E-37  0.5763126786E-36  0.0000000000E+00  0.1316657377E-37  0.1311296781E-35  0.8578386367E-38  0.8578386367E-38  0.1316657377E-37  0.0000000000E+00  0.0000000000E+00 -0.8556891653E-36 -0.2052010077E-37  0.5763126786E-36  0.0000000000E+00  0.0000000000E+00  0.0000000000E+00  0.1316657377E-37  0.1311296781E-35  0.8578386367E-38  0.0000000000E+00  0.0000000000E+00  0.0000000000E+00
45 -0.4684652547E-42 -0.1505575739E-41 -0.1821463077E-43  0.7228319188E-43 -0.5271015086E-41  0.8528311702E-38  0.1381789837E-37 -0.8366720444E-36 -0.2356301453E-37  0.5944459567E-36  0.0000000000E+00  0.1381789837E-37  0.1283899392E-35  0.8528311702E-38  0.8528311702E-38  0.1381789837E-37  0.0000000000E+00  0.0000000000E+00 -0.8366720444E-36 -0.2356301453E-37  0.5944459567E-36  0.0000000000E+00  0.0000000000E+00  0.0000000000E+00  0.1381789837E-37  0.1283899392E-35  0.8528311702E-38  0.0000000000E+00  0.0000000000E+00  0.0000000000E+00
46 -0.3043862780E-42 -0.1248661418E-41  0.2412371413E-42  0.6774795047E-43 -0.6157098761E-41  0.8799708907E-38  0.1448202250E-37 -0.8189380659E-36 -0.2614500033E-37  0.6159856870E-36  0.0000000000E+00  0.1448202250E-37  0.1256744182E-35  0.8799708907E-38  0.8799708907E-38  0.1448202250E-37  0.0000000000E+00  0.0000000000E+00 -0.8189380659E-36 -0.2614500033E-37  0.6159856870E-36  0.0000000000E+00  0.0000000000E+00  0.0000000000E+00  0.1448202250E-37  0.1256744182E-35  0.8799708907E-38  0.0000000000E+00  0.0000000000E+00  0.0000000000E+00
47 -0.1034369663E-42 -0.1319882957E-41  0.3898070089E-42  0.5408527402E-43 -0.7988711815E-41  0.9425227237E-38  0.1500445863E-37 -0.8059316401E-36 -0.2749469798E-37  0.6363301809E-36  0.0000000000E+00  0.1500445863E-37  0.1236004747E-35  0.9425227237E-38  0.9425227237E-38  0.1500445863E-37  0.0000000000E+00  0.0000000000E+00 -0.8059316401E-36 -0.2749469798E-37  0.6363301809E-36  0.0000000000E+00  0.0000000000E+00  0.0000000000E+00  0.1500445863E-37  0.1236004747E-35  0.9425227237E-38  0.0000000000E+00  0.0000000000E+00  0.0000000000E+00
48  0.1933670914E-43 -0.1526314686E-41  0.3470568160E-42  0.4128629267E-43 -0.9915587732E-41  0.1037497340E-37  0.1531979400E-37 -0.7944133962E-36 -0.2815977435E-37  0.6517646691E-36  0.0000000000E+00  0.1531979400E-37  0.1217931950E-35  0.1037497340E-37  0.1037497340E-37  0.1531979400E-37  0.0000000000E+00  0.0000000000E+00 -0.7944133962E-36 -0.2815977435E-37  0.6517646691E-36  0.0000000000E+00  0.0000000000E+00  0.0000000000E+00  0.1531979400E-37  0.1217931950E-35  0.1037497340E-37  0.0000000000E+00  0.0000000000E+00  0.0000000000E+00
49  0.1755652705E-43 -0.1421783559E-41  0.1548780714E-42  0.3684844756E-43 -0.1077377890E-40  0.1164469500E-37  0.1547940290E-37 -0.7896177684E-36 -0.2923746239E-37  0.6624718095E-36  0.0000000000E+00  0.1547940290E-37  0.1209757026E-35  0.1164469500E-37  0.1164469500E-37  0.1547940290E-37  0.0000000000E+00  0.0000000000E+00 -0.7896177684E-36 -0.2923746239E-37  0.6624718095E-36  0.0000000000E+00  0.0000000000E+00  0.0000000000E+00  0.1547940290E-37  0.1209757026E-35  0.1164469500E-37  0.0000000000E+00  0.0000000000E+00  0.0000000000E+00
50 -0.1067114131E-42 -0.1282135701E-41 -0.5237162234E-43  0.3921012302E-43 -0.1042262535E-40  0.1291010102E-37  0.1562392590E-37 -0.7844725213E-36 -0.3106704980E-37  0.6709305970E-36  0.0000000000E+00  0.1562392590E-37  0.1201636623E-35  0.1291010102E-37  0.1291010102E-37  0.1562392590E-37  0.0000000000E+00  0.0000000000E+00 -0.7844725213E-36 -0.3106704980E-37  0.6709305970E-36  0.0000000000E+00  0.0000000000E+00  0.0000000000E+00  0.1562392590E-37  0.1201636623E-35  0.1291010102E-37  0.0000000000E+00  0.0000000000E+00  0.0000000000E+00
51 -0.2857223533E-42 -0.9356540352E-42 -0.1633796527E-42  0.4272272156E-43 -0.9406636538E-41  0.1374565164E-37  0.1587892446E-37 -0.7767921777E-36 -0.3317294460E-37  0.6805163918E-36  0.0000000000E+00  0.1587892446E-37  0.1190472862E-35  0.1374565164E-37  0.1374565164E-37  0.1587892446E-37  0.0000000000E+00  0.0000000000E+00 -0.7767921777E-36 -0.3317294460E-37  0.6805163918E-36  0.0000000000E+00  0.0000000000E+00  0.0000000000E+00  0.1587892446E-37  0.1190472862E-35  0.1374565164E-37  0.0000000000E+00  0.0000000000E+00  0.0000000000E+00
52 -0.4161913857E-42 -0.5258847348E-42 -0.1355065560E-42  0.4458790845E-43 -0.8629803027E-41  0.1393235298E-37  0.1627065043E-37 -0.7653975069E-36 -0.3483525101E-37  0.6931316498E-36  0.0000000000E+00  0.1627065043E-37  0.1174490931E-35  0.1393235298E-37  0.1393235298E-37  0.1627065043E-37  0.0000000000E+00  0.0000000000E+00 -0.7653975069E-36 -0.3483525101E-37  0.6931316498E-36  0.0000000000E+00  0.0000000000E+00  0.0000000000E+00  0.1627065043E-37  0.1174490931E-35  0.1393235298E-37  0.0000000000E+00  0.0000000000E+00  0.0000000000E+00
53 -0.4236020797E-42 -0.2174735644E-42 -0.2107044269E-44  0.4270484050E-43 -0.8647235666E-41  0.1376532195E-37  0.1675974480E-37 -0.7519972167E-36 -0.3586568947E-37  0.7088355004E-36  0.0000000000E+00  0.1675974480E-37  0.1155664397E-35  0.1376532195E-37  0.1376532195E-37  0.1675974480E-37  0.0000000000E+00  0.0000000000E+00 -0.7519972167E-36 -0.3586568947E-37  0.7088355004E-36  0.0000000000E+00  0.0000000000E+00  0.0000000000E+00  0.1675974480E-37  0.1155664397E-35  0.1376532195E-37  0.0000000000E+00  0.0000000000E+00  0.0000000000E+00
54 -0.3252368598E-42 -0.9229276230E-43  0.1481313449E-42  0.3590902752E-43 -0.9495964265E-41  0.1369791276E-37  0.1725206544E-37 -0.7394335268E-36 -0.3669070819E-37  0.7259986102E-36  0.0000000000E+00  0.1725206544E-37  0.1137604999E-35  0.1369791276E-37  0.1369791276E-37  0.1725206544E-37  0.0000000000E+00  0.0000000000E+00 -0.7394335268E-36 -0.3669070819E-37  0.7259986102E-36  0.0000000000E+00  0.0000000000E+00  0.0000000000E+00  0.1725206544E-37  0.1137604999E-35  0.1369791276E-37  0.0000000000E+00  0.0000000000E+00  0.0000000000E+00