TITLE="fun3d_case_title"
VARIABLES="Iteration" "R_1" "R_2" "R_3" "R_4" "R_5" "C_L" "C_D" "C_M_x" "C_M_y" "C_M_z" "Wall Time" "C_x" "C_y" "C_z" "C_Lp" "C_Dp" "C_Lv" "C_Dv" "C_M_xp" "C_M_yp" "C_M_zp" "C_M_xv" "C_M_yv" "C_M_zv" "C_xp" "C_yp" "C_zp" "C_xv" "C_yv" "C_zv"
ZONE  I=100 F=POINT
1  0.0000000000E+00  0.0000000000E+00  0.0000000000E+00  0.0000000000E+00  0.0000000000E+00  0.0000000000E+00  0.0000000000E+00  0.0000000000E+00  0.0000000000E+00  0.0000000000E+00  0.0000000000E+00  0.0000000000E+00  0.0000000000E+00  0.0000000000E+00  0.0000000000E+00  0.0000000000E+00  0.0000000000E+00  0.0000000000E+00  0.0000000000E+00  0.0000000000E+00  0.0000000000E+00  0.0000000000E+00  0.0000000000E+00  0.0000000000E+00  0.0000000000E+00  0.0000000000E+00  0.0000000000E+00  0.0000000000E+00  0.0000000000E+00  0.0000000000E+00
2  0.9189640507E-59  0.3767017677E-59  0.1992844205E-58 -0.3648730848E-60 -0.4830546504E-59 -0.1797737965E-46  0.4564702321E-48 -0.2761011054E-44  0.2233147014E-45  0.1062126771E-44  0.0000000000E+00  0.4564702321E-48  0.4564830169E-44 -0.1797737965E-46 -0.1797737965E-46  0.4564702321E-48  0.0000000000E+00  0.0000000000E+00 -0.2761011054E-44  0.2233147014E-45  0.1062126771E-44  0.0000000000E+00  0.0000000000E+00  0.0000000000E+00  0.4564702321E-48  0.4564830169E-44 -0.1797737965E-46  0.0000000000E+00  0.0000000000E+00  0.0000000000E+00
3 -0.1025218400E-53 -0.4920555028E-54  0.6182552047E-55 -0.3850073247E-56 -0.3141900504E-53  0.1978838893E-45  0.4511635186E-46 -0.8296898743E-44  0.1807695689E-45 -0.1029898090E-46  0.0000000000E+00  0.4511635186E-46  0.1178602153E-43  0.1978838893E-45  0.1978838893E-45  0.4511635186E-46  0.0000000000E+00  0.0000000000E+00 -0.8296898743E-44  0.1807695689E-45 -0.1029898090E-46  0.0000000000E+00  0.0000000000E+00  0.0000000000E+00  0.4511635186E-46  0.1178602153E-43  0.1978838893E-45  0.0000000000E+00  0.0000000000E+00  0.0000000000E+00
4 -0.1043507143E-51 -0.9289934444E-52  0.1065058277E-53 -0.1257951957E-52 -0.2859390498E-51  0.3954705524E-40 -0.1777987189E-40  0.2376074821E-37  0.9083859779E-41 -0.2477409742E-38  0.0000000000E+00 -0.1777987189E-40 -0.3069759108E-37  0.3954705524E-40  0.3954705524E-40 -0.1777987189E-40  0.0000000000E+00  0.0000000000E+00  0.2376074821E-37  0.9083859779E-41 -0.2477409742E-38  0.0000000000E+00  0.0000000000E+00  0.0000000000E+00 -0.1777987189E-40 -0.3069759108E-37  0.3954705524E-40  0.0000000000E+00  0.0000000000E+00  0.0000000000E+00
5  0.6031349706E-50  0.1032314039E-49 -0.8208647923E-52  0.4522482502E-51  0.1841645474E-49 -0.3770107591E-38 -0.6056690673E-39  0.2050377098E-37  0.6807751713E-39 -0.4017725563E-38  0.0000000000E+00 -0.6056690673E-39 -0.2984408000E-37 -0.3770107591E-38 -0.3770107591E-38 -0.6056690673E-39  0.0000000000E+00  0.0000000000E+00  0.2050377098E-37  0.6807751713E-39 -0.4017725563E-38  0.0000000000E+00  0.0000000000E+00  0.0000000000E+00 -0.6056690673E-39 -0.2984408000E-37 -0.3770107591E-38  0.0000000000E+00  0.0000000000E+00  0.0000000000E+00
6  0.5566290706E-47  0.1077244873E-46 -0.5033130803E-48  0.3471810008E-48  0.1818387819E-46 -0.1579770426E-37 -0.2098845163E-38 -0.3265652117E-36 -0.2334756267E-39  0.2633474186E-37  0.0000000000E+00 -0.2098845163E-38  0.3947466858E-36 -0.1579770426E-37 -0.1579770426E-37 -0.2098845163E-38  0.0000000000E+00  0.0000000000E+00 -0.3265652117E-36 -0.2334756267E-39  0.2633474186E-37  0.0000000000E+00  0.0000000000E+00  0.0000000000E+00 -0.2098845163E-38  0.3947466858E-36 -0.1579770426E-37  0.0000000000E+00  0.0000000000E+00  0.0000000000E+00
7  0.3341806837E-46  0.5890470177E-46 -0.1568419713E-46  0.1782977018E-48  0.1140602375E-45  0.1022285061E-37 -0.4044455221E-38  0.1014674733E-38 -0.1034190064E-37 -0.1019863726E-37  0.0000000000E+00 -0.4044455221E-38  0.1858516332E-37  0.1022285061E-37  0.1022285061E-37 -0.4044455221E-38  0.0000000000E+00  0.0000000000E+00  0.1014674733E-38 -0.1034190064E-37 -0.1019863726E-37  0.0000000000E+00  0.0000000000E+00  0.0000000000E+00 -0.4044455221E-38  0.1858516332E-37  0.1022285061E-37  0.0000000000E+00  0.0000000000E+00  0.0000000000E+00
8  0.1153522199E-46 -0.4192813271E-45 -0.1590917204E-45  0.5313991579E-47 -0.3097878103E-46 -0.2183093613E-37 -0.6725285258E-38 -0.1512933198E-35 -0.7241185411E-38  0.8143803542E-37  0.0000000000E+00 -0.6725285258E-38  0.2183155781E-35 -0.2183093613E-37 -0.2183093613E-37 -0.6725285258E-38  0.0000000000E+00  0.0000000000E+00 -0.1512933198E-35 -0.7241185411E-38  0.8143803542E-37  0.0000000000E+00  0.0000000000E+00  0.0000000000E+00 -0.6725285258E-38  0.2183155781E-35 -0.2183093613E-37  0.0000000000E+00  0.0000000000E+00  0.0000000000E+00
9 -0.9373308275E-45 -0.2184375646E-44  0.1846742506E-46  0.4204761075E-46 -0.4023212673E-44  0.6110872923E-38 -0.1007501155E-37 -0.2420583442E-35 -0.2143184540E-37  0.7864649853E-37  0.0000000000E+00 -0.1007501155E-37  0.3434021847E-35  0.6110872923E-38  0.6110872923E-38 -0.1007501155E-37  0.0000000000E+00  0.0000000000E+00 -0.2420583442E-35 -0.2143184540E-37  0.7864649853E-37  0.0000000000E+00  0.0000000000E+00  0.0000000000E+00 -0.1007501155E-37  0.3434021847E-35  0.6110872923E-38  0.0000000000E+00  0.0000000000E+00  0.0000000000E+00
10 -0.9423409731E-45  0.4541021637E-44  0.9901195833E-45 -0.5762131299E-46 -0.2252853935E-44  0.5637483665E-37 -0.1134431271E-37 -0.2503024353E-35 -0.1411266692E-37 -0.9314059918E-38  0.0000000000E+00 -0.1134431271E-37  0.3637973327E-35  0.5637483665E-37  0.5637483665E-37 -0.1134431271E-37  0.0000000000E+00  0.0000000000E+00 -0.2503024353E-35 -0.1411266692E-37 -0.9314059918E-38  0.0000000000E+00  0.0000000000E+00  0.0000000000E+00 -0.1134431271E-37  0.3637973327E-35  0.5637483665E-37  0.0000000000E+00  0.0000000000E+00  0.0000000000E+00
11  0.5698813399E-44  0.3118409931E-43  0.1454231505E-45  0.3057568688E-45  0.2239811807E-43  0.1943898590E-37 -0.1599155425E-37 -0.2137248085E-35  0.9694290023E-38 -0.1839555296E-36  0.0000000000E+00 -0.1599155425E-37  0.3226546572E-35  0.1943898590E-37  0.1943898590E-37 -0.1599155425E-37  0.0000000000E+00  0.0000000000E+00 -0.2137248085E-35  0.9694290023E-38 -0.1839555296E-36  0.0000000000E+00  0.0000000000E+00  0.0000000000E+00 -0.1599155425E-37  0.3226546572E-35  0.1943898590E-37  0.0000000000E+00  0.0000000000E+00  0.0000000000E+00
12  0.5818093868E-44  0.1465669067E-43  0.1269278690E-44  0.7836804751E-46  0.1924019468E-43 -0.4686594509E-37 -0.1425846604E-37 -0.1440973860E-35  0.3359236009E-37 -0.2706426649E-36  0.0000000000E+00 -0.1425846604E-37  0.2256547220E-35 -0.4686594509E-37 -0.4686594509E-37 -0.1425846604E-37  0.0000000000E+00  0.0000000000E+00 -0.1440973860E-35  0.3359236009E-37 -0.2706426649E-36  0.0000000000E+00  0.0000000000E+00  0.0000000000E+00 -0.1425846604E-37  0.2256547220E-35 -0.4686594509E-37  0.0000000000E+00  0.0000000000E+00  0.0000000000E+00
13  0.7287603985E-45 -0.1580296264E-44  0.3764073051E-44 -0.2269900011E-45  0.2297047894E-45 -0.8538618742E-37 -0.5840572849E-38 -0.1057499934E-35  0.4353625797E-37 -0.1426206784E-36  0.0000000000E+00 -0.5840572849E-38  0.1745791043E-35 -0.8538618742E-37 -0.8538618742E-37 -0.5840572849E-38  0.0000000000E+00  0.0000000000E+00 -0.1057499934E-35  0.4353625797E-37 -0.1426206784E-36  0.0000000000E+00  0.0000000000E+00  0.0000000000E+00 -0.5840572849E-38  0.1745791043E-35 -0.8538618742E-37  0.0000000000E+00  0.0000000000E+00  0.0000000000E+00
14  0.1815906106E-44  0.6028226111E-44  0.1123687960E-44 -0.3898711006E-45  0.7406770869E-44 -0.7326030192E-37  0.3309933357E-38 -0.7177522188E-36  0.3050509306E-37  0.8429236817E-37  0.0000000000E+00  0.3309933357E-38  0.1225026149E-35 -0.7326030192E-37 -0.7326030192E-37  0.3309933357E-38  0.0000000000E+00  0.0000000000E+00 -0.7177522188E-36  0.3050509306E-37  0.8429236817E-37  0.0000000000E+00  0.0000000000E+00  0.0000000000E+00  0.3309933357E-38  0.1225026149E-35 -0.7326030192E-37  0.0000000000E+00  0.0000000000E+00  0.0000000000E+00
15  0.2754522250E-44  0.1230393738E-43  0.6319533474E-45 -0.7717909400E-45  0.1337128319E-43 -0.2964907940E-37  0.7803689322E-38 -0.7624120651E-36  0.5181201442E-38  0.2913204302E-36  0.0000000000E+00  0.7803689322E-38  0.1215264866E-35 -0.2964907940E-37 -0.2964907940E-37  0.7803689322E-38  0.0000000000E+00  0.0000000000E+00 -0.7624120651E-36  0.5181201442E-38  0.2913204302E-36  0.0000000000E+00  0.0000000000E+00  0.0000000000E+00  0.7803689322E-38  0.1215264866E-35 -0.2964907940E-37  0.0000000000E+00  0.0000000000E+00  0.0000000000E+00
16 -0.2299782969E-44  0.4788360381E-44  0.1591686398E-44 -0.1253743909E-44 -0.5503146900E-44  0.1339322831E-37  0.5163345002E-38 -0.1067418140E-35 -0.1095084133E-37  0.3529903549E-36  0.0000000000E+00  0.5163345002E-38  0.1573443796E-35  0.1339322831E-37  0.1339322831E-37  0.5163345002E-38  0.0000000000E+00  0.0000000000E+00 -0.1067418140E-35 -0.1095084133E-37  0.3529903549E-36  0.0000000000E+00  0.0000000000E+00  0.0000000000E+00  0.5163345002E-38  0.1573443796E-35  0.1339322831E-37  0.0000000000E+00  0.0000000000E+00  0.0000000000E+00
17 -0.2128593799E-45  0.1210039501E-44 -0.5743145396E-44 -0.7182622703E-45 -0.9339473139E-45  0.3011356476E-37 -0.3175816912E-39 -0.1292604375E-35 -0.6611846210E-39  0.2642481936E-36  0.0000000000E+00 -0.3175816912E-39  0.1868218550E-35  0.3011356476E-37  0.3011356476E-37 -0.3175816912E-39  0.0000000000E+00  0.0000000000E+00 -0.1292604375E-35 -0.6611846210E-39  0.2642481936E-36  0.0000000000E+00  0.0000000000E+00  0.0000000000E+00 -0.3175816912E-39  0.1868218550E-35  0.3011356476E-37  0.0000000000E+00  0.0000000000E+00  0.0000000000E+00
18 -0.1829861617E-44 -0.8098716193E-44 -0.7086182650E-44  0.1101173266E-45 -0.8482024850E-44  0.1960177421E-37 -0.4776103571E-38 -0.1399316228E-35  0.2728794045E-37  0.1188751174E-36  0.0000000000E+00 -0.4776103571E-38  0.2057269472E-35  0.1960177421E-37  0.1960177421E-37 -0.4776103571E-38  0.0000000000E+00  0.0000000000E+00 -0.1399316228E-35  0.2728794045E-37  0.1188751174E-36  0.0000000000E+00  0.0000000000E+00  0.0000000000E+00 -0.4776103571E-38  0.2057269472E-35  0.1960177421E-37  0.0000000000E+00  0.0000000000E+00  0.0000000000E+00
19 -0.8168303055E-44 -0.1336550076E-43 -0.1129385105E-44  0.4203263254E-45 -0.2773082939E-43 -0.4037536620E-38 -0.5882208453E-38 -0.1355357447E-35  0.5155581303E-37  0.2289232786E-37  0.0000000000E+00 -0.5882208453E-38  0.2057257991E-35 -0.4037536620E-38 -0.4037536620E-38 -0.5882208453E-38  0.0000000000E+00  0.0000000000E+00 -0.1355357447E-35  0.5155581303E-37  0.2289232786E-37  0.0000000000E+00  0.0000000000E+00  0.0000000000E+00 -0.5882208453E-38  0.2057257991E-35 -0.4037536620E-38  0.0000000000E+00  0.0000000000E+00  0.0000000000E+00
20 -0.4173605260E-44 -0.3902724353E-44  0.3001421444E-45  0.1153465775E-44 -0.1332588189E-43 -0.2354348172E-37 -0.3589132203E-38 -0.1257857532E-35  0.5791122335E-37  0.3232114874E-37  0.0000000000E+00 -0.3589132203E-38  0.1958854534E-35 -0.2354348172E-37 -0.2354348172E-37 -0.3589132203E-38  0.0000000000E+00  0.0000000000E+00 -0.1257857532E-35  0.5791122335E-37  0.3232114874E-37  0.0000000000E+00  0.0000000000E+00  0.0000000000E+00 -0.3589132203E-38  0.1958854534E-35 -0.2354348172E-37  0.0000000000E+00  0.0000000000E+00  0.0000000000E+00
21 -0.1599180940E-45  0.1889766986E-44 -0.3616734303E-45  0.1870273694E-44  0.6950458480E-45 -0.2986427242E-37 -0.7105073801E-42 -0.1125607759E-35  0.4742656075E-37  0.1157002999E-36  0.0000000000E+00 -0.7105073801E-42  0.1768301911E-35 -0.2986427242E-37 -0.2986427242E-37 -0.7105073801E-42  0.0000000000E+00  0.0000000000E+00 -0.1125607759E-35  0.4742656075E-37  0.1157002999E-36  0.0000000000E+00  0.0000000000E+00  0.0000000000E+00 -0.7105073801E-42  0.1768301911E-35 -0.2986427242E-37  0.0000000000E+00  0.0000000000E+00  0.0000000000E+00
22 -0.2674337983E-44  0.6215937562E-44  0.8705310051E-45  0.1382694598E-44 -0.4092818350E-44 -0.2719233842E-37  0.3162913700E-38 -0.1033350198E-35  0.3338898685E-37  0.2111339420E-36  0.0000000000E+00  0.3162913700E-38  0.1609377399E-35 -0.2719233842E-37 -0.2719233842E-37  0.3162913700E-38  0.0000000000E+00  0.0000000000E+00 -0.1033350198E-35  0.3338898685E-37  0.2111339420E-36  0.0000000000E+00  0.0000000000E+00  0.0000000000E+00  0.3162913700E-38  0.1609377399E-35 -0.2719233842E-37  0.0000000000E+00  0.0000000000E+00  0.0000000000E+00
23 -0.1676795184E-44  0.1494117897E-43 -0.2536089392E-45  0.3514939622E-45  0.1134023074E-44 -0.2088100280E-37  0.4731208698E-38 -0.1002452923E-35  0.2610328755E-37  0.2754596600E-36  0.0000000000E+00  0.4731208698E-38  0.1539396395E-35 -0.2088100280E-37 -0.2088100280E-37  0.4731208698E-38  0.0000000000E+00  0.0000000000E+00 -0.1002452923E-35  0.2610328755E-37  0.2754596600E-36  0.0000000000E+00  0.0000000000E+00  0.0000000000E+00  0.4731208698E-38  0.1539396395E-35 -0.2088100280E-37  0.0000000000E+00  0.0000000000E+00  0.0000000000E+00
24  0.6210342456E-45  0.1855587664E-43 -0.3012448473E-44 -0.4659800186E-46  0.8140611616E-44 -0.1329640428E-37  0.4570978364E-38 -0.9948735662E-36  0.2516696157E-37  0.2935754184E-36  0.0000000000E+00  0.4570978364E-38  0.1514436612E-35 -0.1329640428E-37 -0.1329640428E-37  0.4570978364E-38  0.0000000000E+00  0.0000000000E+00 -0.9948735662E-36  0.2516696157E-37  0.2935754184E-36  0.0000000000E+00  0.0000000000E+00  0.0000000000E+00  0.4570978364E-38  0.1514436612E-35 -0.1329640428E-37  0.0000000000E+00  0.0000000000E+00  0.0000000000E+00
25  0.8005918051E-45  0.1345681656E-43 -0.3935165013E-44  0.6670162729E-46  0.6790243085E-44 -0.4786242937E-38  0.3298887264E-38 -0.1053975576E-35  0.2371037399E-37  0.2811791367E-36  0.0000000000E+00  0.3298887264E-38  0.1596467992E-35 -0.4786242937E-38 -0.4786242937E-38  0.3298887264E-38  0.0000000000E+00  0.0000000000E+00 -0.1053975576E-35  0.2371037399E-37  0.2811791367E-36  0.0000000000E+00  0.0000000000E+00  0.0000000000E+00  0.3298887264E-38  0.1596467992E-35 -0.4786242937E-38  0.0000000000E+00  0.0000000000E+00  0.0000000000E+00
26  0.6641827559E-45  0.5737829143E-44 -0.1226791962E-44  0.6286697265E-46  0.4299639662E-44  0.3352103424E-38  0.2088417997E-38 -0.1103661965E-35  0.1765757904E-37  0.2566257362E-36  0.0000000000E+00  0.2088417997E-38  0.1668993579E-35  0.3352103424E-38  0.3352103424E-38  0.2088417997E-38  0.0000000000E+00  0.0000000000E+00 -0.1103661965E-35  0.1765757904E-37  0.2566257362E-36  0.0000000000E+00  0.0000000000E+00  0.0000000000E+00  0.2088417997E-38  0.1668993579E-35  0.3352103424E-38  0.0000000000E+00  0.0000000000E+00  0.0000000000E+00
27 -0.3599710294E-46  0.1678682060E-45  0.5576132048E-45 -0.3954560699E-47  0.1374900173E-44  0.6363304522E-38  0.1872121677E-38 -0.1111815975E-35  0.1066878765E-37  0.2409921635E-36  0.0000000000E+00  0.1872121677E-38  0.1683654227E-35  0.6363304522E-38  0.6363304522E-38  0.1872121677E-38  0.0000000000E+00  0.0000000000E+00 -0.1111815975E-35  0.1066878765E-37  0.2409921635E-36  0.0000000000E+00  0.0000000000E+00  0.0000000000E+00  0.1872121677E-38  0.1683654227E-35  0.6363304522E-38  0.0000000000E+00  0.0000000000E+00  0.0000000000E+00
28 -0.9120827299E-45 -0.1296583524E-44  0.2019207758E-44  0.7302095831E-46 -0.8837436636E-45  0.2957766897E-38  0.2758363997E-38 -0.1089921485E-35  0.7780195626E-38  0.2482593678E-36  0.0000000000E+00  0.2758363997E-38  0.1658343832E-35  0.2957766897E-38  0.2957766897E-38  0.2758363997E-38  0.0000000000E+00  0.0000000000E+00 -0.1089921485E-35  0.7780195626E-38  0.2482593678E-36  0.0000000000E+00  0.0000000000E+00  0.0000000000E+00  0.2758363997E-38  0.1658343832E-35  0.2957766897E-38  0.0000000000E+00  0.0000000000E+00  0.0000000000E+00
29 -0.1877639378E-45  0.2967900978E-44  0.5410937213E-44  0.1071899905E-45  0.2823089359E-44 -0.4536875688E-38  0.4504825542E-38 -0.1025055721E-35  0.1082002035E-37  0.2817496071E-36  0.0000000000E+00  0.4504825542E-38  0.1573671770E-35 -0.4536875688E-38 -0.4536875688E-38  0.4504825542E-38  0.0000000000E+00  0.0000000000E+00 -0.1025055721E-35  0.1082002035E-37  0.2817496071E-36  0.0000000000E+00  0.0000000000E+00  0.0000000000E+00  0.4504825542E-38  0.1573671770E-35 -0.4536875688E-38  0.0000000000E+00  0.0000000000E+00  0.0000000000E+00
30  0.1203380998E-44  0.9732990953E-44  0.6806002961E-44  0.2731238372E-46  0.8951000381E-44 -0.1118277055E-37  0.6504608114E-38 -0.9677416858E-36  0.1533867707E-37  0.3351717434E-36  0.0000000000E+00  0.6504608114E-38  0.1497648256E-35 -0.1118277055E-37 -0.1118277055E-37  0.6504608114E-38  0.0000000000E+00  0.0000000000E+00 -0.9677416858E-36  0.1533867707E-37  0.3351717434E-36  0.0000000000E+00  0.0000000000E+00  0.0000000000E+00  0.6504608114E-38  0.1497648256E-35 -0.1118277055E-37  0.0000000000E+00  0.0000000000E+00  0.0000000000E+00
31  0.8770975511E-45  0.1500956624E-43  0.5523871554E-44  0.2116462421E-45  0.9680818079E-44 -0.1180819807E-37  0.7981484400E-38 -0.9401380273E-36  0.1480946157E-37  0.3875010949E-36  0.0000000000E+00  0.7981484400E-38  0.1456547813E-35 -0.1180819807E-37 -0.1180819807E-37  0.7981484400E-38  0.0000000000E+00  0.0000000000E+00 -0.9401380273E-36  0.1480946157E-37  0.3875010949E-36  0.0000000000E+00  0.0000000000E+00  0.0000000000E+00  0.7981484400E-38  0.1456547813E-35 -0.1180819807E-37  0.0000000000E+00  0.0000000000E+00  0.0000000000E+00
32 -0.1457991830E-45  0.1666095095E-43  0.3429502661E-44  0.6864344482E-45  0.7467622976E-44 -0.5914052638E-38  0.8609659655E-38 -0.9339184390E-36  0.7630375110E-38  0.4199800818E-36  0.0000000000E+00  0.8609659655E-38  0.1437641923E-35 -0.5914052638E-38 -0.5914052638E-38  0.8609659655E-38  0.0000000000E+00  0.0000000000E+00 -0.9339184390E-36  0.7630375110E-38  0.4199800818E-36  0.0000000000E+00  0.0000000000E+00  0.0000000000E+00  0.8609659655E-38  0.1437641923E-35 -0.5914052638E-38  0.0000000000E+00  0.0000000000E+00  0.0000000000E+00
33 -0.2800359546E-45  0.1339570605E-43  0.1705642557E-44  0.8999749351E-45  0.6543733180E-44  0.2873527356E-38  0.8474504489E-38 -0.9578006423E-36 -0.1995335861E-38  0.4284390296E-36  0.0000000000E+00  0.8474504489E-38  0.1460055967E-35  0.2873527356E-38  0.2873527356E-38  0.8474504489E-38  0.0000000000E+00  0.0000000000E+00 -0.9578006423E-36 -0.1995335861E-38  0.4284390296E-36  0.0000000000E+00  0.0000000000E+00  0.0000000000E+00  0.8474504489E-38  0.1460055967E-35  0.2873527356E-38  0.0000000000E+00  0.0000000000E+00  0.0000000000E+00
34 -0.4126783408E-45  0.7819891225E-44  0.1089316013E-44  0.8588634656E-45  0.5010378800E-44  0.9402142122E-38  0.8138135651E-38 -0.9755194403E-36 -0.7878752067E-38  0.4222523876E-36  0.0000000000E+00  0.8138135651E-38  0.1480122900E-35  0.9402142122E-38  0.9402142122E-38  0.8138135651E-38  0.0000000000E+00  0.0000000000E+00 -0.9755194403E-36 -0.7878752067E-38  0.4222523876E-36  0.0000000000E+00  0.0000000000E+00  0.0000000000E+00  0.8138135651E-38  0.1480122900E-35  0.9402142122E-38  0.0000000000E+00  0.0000000000E+00  0.0000000000E+00
35 -0.9473227794E-45  0.4439646325E-44  0.1010092721E-44  0.9040162182E-45  0.3218163265E-44  0.9850774133E-38  0.8196433112E-38 -0.9713018086E-36 -0.7301961656E-38  0.4190343046E-36  0.0000000000E+00  0.8196433112E-38  0.1478509222E-35  0.9850774133E-38  0.9850774133E-38  0.8196433112E-38  0.0000000000E+00  0.0000000000E+00 -0.9713018086E-36 -0.7301961656E-38  0.4190343046E-36  0.0000000000E+00  0.0000000000E+00  0.0000000000E+00  0.8196433112E-38  0.1478509222E-35  0.9850774133E-38  0.0000000000E+00  0.0000000000E+00  0.0000000000E+00
36 -0.9485993197E-45  0.4312948377E-44  0.5141394227E-45  0.9022494657E-45  0.3830006483E-44  0.5651926354E-38  0.8868370133E-38 -0.9506115638E-36 -0.3624346246E-38  0.4310158839E-36  0.0000000000E+00  0.8868370133E-38  0.1458723246E-35  0.5651926354E-38  0.5651926354E-38  0.8868370133E-38  0.0000000000E+00  0.0000000000E+00 -0.9506115638E-36 -0.3624346246E-38  0.4310158839E-36  0.0000000000E+00  0.0000000000E+00  0.0000000000E+00  0.8868370133E-38  0.1458723246E-35  0.5651926354E-38  0.0000000000E+00  0.0000000000E+00  0.0000000000E+00
37 -0.3662245130E-45  0.5419484104E-44  0.2207333445E-45  0.8175026994E-45  0.5979191983E-44  0.1202324438E-38  0.1001420574E-37 -0.9153043109E-36 -0.2101367563E-38  0.4585354820E-36  0.0000000000E+00  0.1001420574E-37  0.1415273571E-35  0.1202324438E-38  0.1202324438E-38  0.1001420574E-37  0.0000000000E+00  0.0000000000E+00 -0.9153043109E-36 -0.2101367563E-38  0.4585354820E-36  0.0000000000E+00  0.0000000000E+00  0.0000000000E+00  0.1001420574E-37  0.1415273571E-35  0.1202324438E-38  0.0000000000E+00  0.0000000000E+00  0.0000000000E+00
38  0.2754734755E-46  0.6133767158E-44  0.1046430300E-44  0.9229699481E-45  0.7204839227E-44 -0.1161150859E-39  0.1122632002E-37 -0.8863751617E-36 -0.5213088805E-38  0.4940165673E-36  0.0000000000E+00  0.1122632002E-37  0.1373426735E-35 -0.1161150859E-39 -0.1161150859E-39  0.1122632002E-37  0.0000000000E+00  0.0000000000E+00 -0.8863751617E-36 -0.5213088805E-38  0.4940165673E-36  0.0000000000E+00  0.0000000000E+00  0.0000000000E+00  0.1122632002E-37  0.1373426735E-35 -0.1161150859E-39  0.0000000000E+00  0.0000000000E+00  0.0000000000E+00
39  0.6066534925E-46  0.6250703323E-44  0.2016827261E-44  0.1100340998E-44  0.7235469526E-44  0.2313731599E-38  0.1208989906E-37 -0.8714908196E-36 -0.1122693235E-37  0.5256948801E-36  0.0000000000E+00  0.1208989906E-37  0.1345638985E-35  0.2313731599E-38  0.2313731599E-38  0.1208989906E-37  0.0000000000E+00  0.0000000000E+00 -0.8714908196E-36 -0.1122693235E-37  0.5256948801E-36  0.0000000000E+00  0.0000000000E+00  0.0000000000E+00  0.1208989906E-37  0.1345638985E-35  0.2313731599E-38  0.0000000000E+00  0.0000000000E+00  0.0000000000E+00
40  0.1827000383E-45  0.6066776092E-44  0.2283652594E-44  0.1077794820E-44  0.7460943113E-44  0.6367558139E-38  0.1248742861E-37 -0.8697073291E-36 -0.1625180720E-37  0.5467526180E-36  0.0000000000E+00  0.1248742861E-37  0.1335939552E-35  0.6367558139E-38  0.6367558139E-38  0.1248742861E-37  0.0000000000E+00  0.0000000000E+00 -0.8697073291E-36 -0.1625180720E-37  0.5467526180E-36  0.0000000000E+00  0.0000000000E+00  0.0000000000E+00  0.1248742861E-37  0.1335939552E-35  0.6367558139E-38  0.0000000000E+00  0.0000000000E+00  0.0000000000E+00
41  0.7177145031E-45  0.6218754930E-44  0.2379925529E-44  0.9564746446E-45  0.9138140506E-44  0.9688669324E-38  0.1253910587E-37 -0.8727276548E-36 -0.1821570268E-37  0.5567485805E-36  0.0000000000E+00  0.1253910587E-37  0.1336880828E-35  0.9688669324E-38  0.9688669324E-38  0.1253910587E-37  0.0000000000E+00  0.0000000000E+00 -0.8727276548E-36 -0.1821570268E-37  0.5567485805E-36  0.0000000000E+00  0.0000000000E+00  0.0000000000E+00  0.1253910587E-37  0.1336880828E-35  0.9688669324E-38  0.0000000000E+00  0.0000000000E+00  0.0000000000E+00
42  0.1231975752E-44  0.7333630921E-44  0.2322451942E-44  0.8603675019E-45  0.1141863070E-43  0.1092605397E-37  0.1252499512E-37 -0.8728759692E-36 -0.1797721774E-37  0.5607717068E-36  0.0000000000E+00  0.1252499512E-37  0.1338241287E-35  0.1092605397E-37  0.1092605397E-37  0.1252499512E-37  0.0000000000E+00  0.0000000000E+00 -0.8728759692E-36 -0.1797721774E-37  0.5607717068E-36  0.0000000000E+00  0.0000000000E+00  0.0000000000E+00  0.1252499512E-37  0.1338241287E-35  0.1092605397E-37  0.0000000000E+00  0.0000000000E+00  0.0000000000E+00
43  0.1422194984E-44  0.9446331100E-44  0.1868148762E-44  0.7307290726E-45  0.1333609328E-43  0.1051175807E-37  0.1269698429E-37 -0.8643021090E-36 -0.1796597048E-37  0.5658230138E-36  0.0000000000E+00  0.1269698429E-37  0.1329011541E-35  0.1051175807E-37  0.1051175807E-37  0.1269698429E-37  0.0000000000E+00  0.0000000000E+00 -0.8643021090E-36 -0.1796597048E-37  0.5658230138E-36  0.0000000000E+00  0.0000000000E+00  0.0000000000E+00  0.1269698429E-37  0.1329011541E-35  0.1051175807E-37  0.0000000000E+00  0.0000000000E+00  0.0000000000E+00
44  0.1658208465E-44  0.1168675869E-43  0.1399898577E-44  0.5699075328E-45  0.1530121455E-43  0.9862727271E-38  0.1317011570E-37 -0.8485773319E-36 -0.1964334269E-37  0.5774487543E-36  0.0000000000E+00  0.1317011570E-37  0.1308416112E-35  0.9862727271E-38  0.9862727271E-38  0.1317011570E-37  0.0000000000E+00  0.0000000000E+00 -0.8485773319E-36 -0.1964334269E-37  0.5774487543E-36  0.0000000000E+00  0.0000000000E+00  0.0000000000E+00  0.1317011570E-37  0.1308416112E-35  0.9862727271E-38  0.0000000000E+00  0.0000000000E+00  0.0000000000E+00
45  0.1959410486E-44  0.1299112980E-43  0.1174695426E-44  0.4338697570E-45  0.1693781338E-43  0.9511295843E-38  0.1383370531E-37 -0.8293552049E-36 -0.2247726937E-37  0.5958511530E-36  0.0000000000E+00  0.1383370531E-37  0.1280576002E-35  0.9511295843E-38  0.9511295843E-38  0.1383370531E-37  0.0000000000E+00  0.0000000000E+00 -0.8293552049E-36 -0.2247726937E-37  0.5958511530E-36  0.0000000000E+00  0.0000000000E+00  0.0000000000E+00  0.1383370531E-37  0.1280576002E-35  0.9511295843E-38  0.0000000000E+00  0.0000000000E+00  0.0000000000E+00
46  0.2070272969E-44  0.1304593141E-43  0.1124396315E-44  0.3324893896E-45  0.1747686382E-43  0.9670515325E-38  0.1451225341E-37 -0.8114642045E-36 -0.2504397007E-37  0.6175987615E-36  0.0000000000E+00  0.1451225341E-37  0.1253130584E-35  0.9670515325E-38  0.9670515325E-38  0.1451225341E-37  0.0000000000E+00  0.0000000000E+00 -0.8114642045E-36 -0.2504397007E-37  0.6175987615E-36  0.0000000000E+00  0.0000000000E+00  0.0000000000E+00  0.1451225341E-37  0.1253130584E-35  0.9670515325E-38  0.0000000000E+00  0.0000000000E+00  0.0000000000E+00
47  0.2170311282E-44  0.1244182106E-43  0.1152729131E-44  0.2784136854E-45  0.1760616341E-43  0.1041196027E-37  0.1504328021E-37 -0.7985346354E-36 -0.2659023470E-37  0.6380109994E-36  0.0000000000E+00  0.1504328021E-37  0.1232425120E-35  0.1041196027E-37  0.1041196027E-37  0.1504328021E-37  0.0000000000E+00  0.0000000000E+00 -0.7985346354E-36 -0.2659023470E-37  0.6380109994E-36  0.0000000000E+00  0.0000000000E+00  0.0000000000E+00  0.1504328021E-37  0.1232425120E-35  0.1041196027E-37  0.0000000000E+00  0.0000000000E+00  0.0000000000E+00
48  0.2429578473E-44  0.1182181565E-43  0.1251030841E-44  0.2566757708E-45  0.1800231002E-43  0.1159845286E-37  0.1535728775E-37 -0.7870885901E-36 -0.2751840607E-37  0.6533331556E-36  0.0000000000E+00  0.1535728775E-37  0.1214287455E-35  0.1159845286E-37  0.1159845286E-37  0.1535728775E-37  0.0000000000E+00  0.0000000000E+00 -0.7870885901E-36 -0.2751840607E-37  0.6533331556E-36  0.0000000000E+00  0.0000000000E+00  0.0000000000E+00  0.1535728775E-37  0.1214287455E-35  0.1159845286E-37  0.0000000000E+00  0.0000000000E+00  0.0000000000E+00
49  0.2702076982E-44  0.1140493885E-43  0.1350620092E-44  0.2342930042E-45  0.1836841333E-43  0.1300204985E-37  0.1550716186E-37 -0.7827397317E-36 -0.2875212701E-37  0.6638442612E-36  0.0000000000E+00  0.1550716186E-37  0.1206581929E-35  0.1300204985E-37  0.1300204985E-37  0.1550716186E-37  0.0000000000E+00  0.0000000000E+00 -0.7827397317E-36 -0.2875212701E-37  0.6638442612E-36  0.0000000000E+00  0.0000000000E+00  0.0000000000E+00  0.1550716186E-37  0.1206581929E-35  0.1300204985E-37  0.0000000000E+00  0.0000000000E+00  0.0000000000E+00
50  0.2756670454E-44  0.1103568670E-43  0.1336803149E-44  0.2379000857E-45  0.1808259948E-43  0.1437340476E-37  0.1564010106E-37 -0.7780327277E-36 -0.3062483809E-37  0.6721126716E-36  0.0000000000E+00  0.1564010106E-37  0.1198879204E-35  0.1437340476E-37  0.1437340476E-37  0.1564010106E-37  0.0000000000E+00  0.0000000000E+00 -0.7780327277E-36 -0.3062483809E-37  0.6721126716E-36  0.0000000000E+00  0.0000000000E+00  0.0000000000E+00  0.1564010106E-37  0.1198879204E-35  0.1437340476E-37  0.0000000000E+00  0.0000000000E+00  0.0000000000E+00
51  0.2451835572E-44  0.1039424373E-43  0.1200518483E-44  0.2874124887E-45  0.1674331342E-43  0.1508083463E-37  0.1588778635E-37 -0.7706009244E-36 -0.3263450981E-37  0.6815883975E-36  0.0000000000E+00  0.1588778635E-37  0.1187892317E-35  0.1508083463E-37  0.1508083463E-37  0.1588778635E-37  0.0000000000E+00  0.0000000000E+00 -0.7706009244E-36 -0.3263450981E-37  0.6815883975E-36  0.0000000000E+00  0.0000000000E+00  0.0000000000E+00  0.1588778635E-37  0.1187892317E-35  0.1508083463E-37  0.0000000000E+00  0.0000000000E+00  0.0000000000E+00
52  0.1897141731E-44  0.9344517840E-44  0.9730895275E-45  0.3420995540E-45  0.1470953096E-43  0.1511353265E-37  0.1627737376E-37 -0.7592788973E-36 -0.3424408765E-37  0.6941438143E-36  0.0000000000E+00  0.1627737376E-37  0.1171821548E-35  0.1511353265E-37  0.1511353265E-37  0.1627737376E-37  0.0000000000E+00  0.0000000000E+00 -0.7592788973E-36 -0.3424408765E-37  0.6941438143E-36  0.0000000000E+00  0.0000000000E+00  0.0000000000E+00  0.1627737376E-37  0.1171821548E-35  0.1511353265E-37  0.0000000000E+00  0.0000000000E+00  0.0000000000E+00
53  0.1310990656E-44  0.7928982601E-44  0.7168486209E-45  0.3688615277E-45  0.1257170199E-43  0.1482984539E-37  0.1676931251E-37 -0.7458600258E-36 -0.3530162513E-37  0.7098400101E-36  0.0000000000E+00  0.1676931251E-37  0.1152768580E-35  0.1482984539E-37  0.1482984539E-37  0.1676931251E-37  0.0000000000E+00  0.0000000000E+00 -0.7458600258E-36 -0.3530162513E-37  0.7098400101E-36  0.0000000000E+00  0.0000000000E+00  0.0000000000E+00  0.1676931251E-37  0.1152768580E-35  0.1482984539E-37  0.0000000000E+00  0.0000000000E+00  0.0000000000E+00
54  0.8932167069E-45  0.6486735187E-44  0.5121812876E-45  0.3593390748E-45  0.1097563632E-43  0.1474502513E-37  0.1726501096E-37 -0.7331983420E-36 -0.3622361383E-37  0.7269724267E-36  0.0000000000E+00  0.1726501096E-37  0.1134392634E-35  0.1474502513E-37  0.1474502513E-37  0.1726501096E-37  0.0000000000E+00  0.0000000000E+00 -0.7331983420E-36 -0.3622361383E-37  0.7269724267E-36  0.0000000000E+00  0.0000000000E+00  0.0000000000E+00  0.1726501096E-37  0.1134392634E-35  0.1474502513E-37  0.0000000000E+00  0.0000000000E+00  0.0000000000E+00