TITLE="fun3d_case_title"
VARIABLES="Iteration" "R_1" "R_2" "R_3" "R_4" "R_5" "R_6" "C_L" "C_D" "C_M_x" "C_M_y" "C_M_z" "Wall Time" "C_x" "C_y" "C_z" "C_Lp" "C_Dp" "C_Lv" "C_Dv" "C_M_xp" "C_M_yp" "C_M_zp" "C_M_xv" "C_M_yv" "C_M_zv" "C_xp" "C_yp" "C_zp" "C_xv" "C_yv" "C_zv"
ZONE  I=100 F=POINT
1  0.0000000000E+00  0.0000000000E+00  0.0000000000E+00  0.0000000000E+00  0.0000000000E+00  0.0000000000E+00  0.0000000000E+00  0.0000000000E+00  0.0000000000E+00  0.0000000000E+00  0.0000000000E+00  0.0000000000E+00  0.0000000000E+00  0.0000000000E+00  0.0000000000E+00  0.0000000000E+00  0.0000000000E+00  0.0000000000E+00  0.0000000000E+00  0.0000000000E+00  0.0000000000E+00  0.0000000000E+00  0.0000000000E+00  0.0000000000E+00  0.0000000000E+00  0.0000000000E+00  0.0000000000E+00  0.0000000000E+00  0.0000000000E+00  0.0000000000E+00  0.0000000000E+00
2 -0.1608544312E-38  0.1176415895E-39 -0.2518779215E-39  0.4320882650E-39 -0.1193331059E-35  0.3881914178E-36  0.4195812886E-33  0.8733350746E-38  0.9887534877E-34 -0.1021590383E-32 -0.6533433205E-36  0.0000000000E+00  0.8733350746E-38  0.2459719753E-36  0.4195812886E-33  0.4195855713E-33 -0.4705572074E-37 -0.4282723352E-38  0.5578907149E-37  0.9887493730E-34 -0.1021594420E-32 -0.6491378672E-36  0.4114626404E-39  0.4037492679E-38 -0.4205453327E-38 -0.4705572074E-37  0.2453273904E-36  0.4195855713E-33  0.5578907149E-37  0.6445849146E-39 -0.4282723352E-38
3 -0.4980340931E-36  0.3250767302E-37 -0.2158961837E-37 -0.2524821055E-37 -0.2528443791E-34  0.3267496804E-34  0.4947570713E-31  0.1044309174E-35 -0.2230580838E-32 -0.9186765417E-31 -0.6795507437E-34  0.0000000000E+00  0.1044309174E-35  0.1333171055E-34  0.4947570713E-31  0.4947581862E-31 -0.3775319169E-35 -0.1114926249E-36  0.4819628343E-35 -0.2230643887E-32 -0.9186783970E-31 -0.6746088450E-34  0.6304874023E-37  0.1855273366E-36 -0.4941898760E-36 -0.3775319169E-35  0.1329247234E-34  0.4947581862E-31  0.4819628343E-35  0.3923820719E-37 -0.1114926249E-36
4 -0.1974426729E-34 -0.1115211738E-34 -0.5496636758E-35 -0.2739544085E-34 -0.4663972437E-34 -0.6814097663E-35  0.5208062077E-31  0.2716493828E-35  0.4575154657E-32 -0.8952310166E-31 -0.3447563076E-34  0.0000000000E+00  0.2716493828E-35  0.8365300628E-35  0.5208062077E-31  0.5208171871E-31 -0.1339412219E-35 -0.1097934335E-35  0.4055906047E-35  0.4575275235E-32 -0.8952506333E-31 -0.3450599737E-34 -0.1205772803E-36  0.1961661576E-35  0.3036661343E-37 -0.1339412219E-35  0.8202989998E-35  0.5208171871E-31  0.4055906047E-35  0.1623106300E-36 -0.1097934335E-35
5 -0.3279200133E-35 -0.1057737998E-34 -0.6146253166E-35 -0.2336395203E-34 -0.2088780316E-34 -0.1689954018E-34  0.3889123269E-31  0.3933084435E-35  0.4159084426E-32 -0.6799084763E-31  0.1262250806E-35  0.0000000000E+00  0.3933084435E-35  0.7063805115E-35  0.3889123269E-31  0.3889266452E-31  0.8223339442E-36 -0.1431827452E-35  0.3110750491E-35  0.4159305027E-32 -0.6799332567E-31  0.8006830260E-36 -0.2206007678E-36  0.2478044982E-35  0.4615677797E-36  0.8223339442E-36  0.6823786927E-35  0.3889266452E-31  0.3110750491E-35  0.2400181879E-36 -0.1431827452E-35
6 -0.8659771295E-35 -0.5801563866E-35 -0.3442702551E-35 -0.8506560660E-35 -0.1255990603E-34 -0.2046118383E-34  0.3058822214E-31  0.4536613035E-35  0.2177460300E-32 -0.6129676516E-31  0.2754874007E-34  0.0000000000E+00  0.4536613035E-35  0.7441494508E-35  0.3058822214E-31  0.3058958950E-31  0.1927202868E-35 -0.1367361037E-35  0.2609410167E-35  0.2177658023E-32 -0.6129915878E-31  0.2690831478E-34 -0.1977235060E-36  0.2393625643E-35  0.6404252906E-36  0.1927202868E-35  0.7180850124E-35  0.3058958950E-31  0.2609410167E-35  0.2606443845E-36 -0.1367361037E-35
7 -0.7644305850E-35 -0.2997360305E-35 -0.2819553235E-35 -0.5045415108E-36 -0.7134512027E-35 -0.8834861241E-35  0.2711217728E-31  0.4821835598E-35  0.1362361838E-32 -0.6013630825E-31  0.4331804907E-34  0.0000000000E+00  0.4821835598E-35  0.8190353474E-35  0.2711217728E-31  0.2711335882E-31  0.2410893398E-35 -0.1181533779E-35  0.2410942199E-35  0.1362491028E-32 -0.6013843017E-31  0.4263739778E-34 -0.1291904163E-36  0.2121923036E-35  0.6806512873E-36  0.2410893398E-35  0.7929706206E-35  0.2711335882E-31  0.2410942199E-35  0.2606472680E-36 -0.1181533779E-35
8 -0.3354173138E-35 -0.1523726995E-35 -0.2255690710E-35 -0.6760772916E-35 -0.2985375813E-35 -0.3184182478E-35  0.2524278884E-31  0.4804880450E-35  0.1565754152E-32 -0.5611883477E-31  0.5285828275E-34  0.0000000000E+00  0.4804880450E-35  0.8783143580E-35  0.2524278884E-31  0.2524384509E-31  0.2491251949E-35 -0.1056250530E-35  0.2313628501E-35  0.1565832115E-32 -0.5612082197E-31  0.5218822822E-34 -0.7796334874E-37  0.1987198911E-35  0.6700545297E-36  0.2491251949E-35  0.8528300573E-35  0.2524384509E-31  0.2313628501E-35  0.2548430075E-36 -0.1056250530E-35
9 -0.1497212323E-35 -0.7023979519E-36 -0.1325003000E-35 -0.1146374754E-34 -0.1833813594E-35 -0.1977092029E-35  0.2615757447E-31  0.4721298412E-35  0.1936677710E-32 -0.5634387440E-31  0.5641203069E-34  0.0000000000E+00  0.4721298412E-35  0.9028667458E-35  0.2615757447E-31  0.2615856113E-31  0.2431180984E-35 -0.9866552444E-36  0.2290117428E-35  0.1936742529E-32 -0.5634576959E-31  0.5576989279E-34 -0.6481871585E-37  0.1895181228E-35  0.6421378971E-36  0.2431180984E-35  0.8783922812E-35  0.2615856113E-31  0.2290117428E-35  0.2447446458E-36 -0.9866552444E-36
10 -0.1736627264E-35 -0.7473798633E-36 -0.6683891847E-36 -0.1510351023E-34 -0.3010748159E-35 -0.3926061993E-36  0.2518340970E-31  0.4811660124E-35  0.2046093922E-32 -0.5154764037E-31  0.5782178159E-34  0.0000000000E+00  0.4811660124E-35  0.9318736723E-35  0.2518340970E-31  0.2518439954E-31  0.2594312403E-35 -0.9898399410E-36  0.2217347721E-35  0.2046165286E-32 -0.5154957050E-31  0.5720413385E-34 -0.7136450025E-37  0.1930133177E-35  0.6176477417E-36  0.2594312403E-35  0.9085916759E-35  0.2518439954E-31  0.2217347721E-35  0.2328199634E-36 -0.9898399410E-36
11 -0.1515995223E-35 -0.4481611736E-36 -0.4678941949E-36 -0.9677015141E-35 -0.1698971860E-35 -0.1695971368E-36  0.2617788628E-31  0.4813323071E-35  0.2117182264E-32 -0.5298279090E-31  0.6150195940E-34  0.0000000000E+00  0.4813323071E-35  0.9598936974E-35  0.2617788628E-31  0.2617886343E-31  0.2576136394E-35 -0.9771448279E-36  0.2237186677E-35  0.2117255571E-32 -0.5298467333E-31  0.6088937446E-34 -0.7330607012E-37  0.1882430066E-35  0.6125849370E-36  0.2576136394E-35  0.9368625166E-35  0.2617886343E-31  0.2237186677E-35  0.2303118073E-36 -0.9771448279E-36
12 -0.1764455218E-35 -0.7754404947E-36 -0.1600891849E-36 -0.9335216270E-35 -0.3017065699E-35 -0.3635626285E-36  0.2534128563E-31  0.4914141771E-35  0.1898846504E-32 -0.5037269674E-31  0.6209823145E-34  0.0000000000E+00  0.4914141771E-35  0.9758553448E-35  0.2534128563E-31  0.2534227697E-31  0.2707035308E-35 -0.9913467815E-36  0.2207106463E-35  0.1898928956E-32 -0.5037460357E-31  0.6149739559E-34 -0.8245248834E-37  0.1906832336E-35  0.6008358609E-36  0.2707035308E-35  0.9536635675E-35  0.2534227697E-31  0.2207106463E-35  0.2219177727E-36 -0.9913467815E-36
13 -0.9016563240E-36 -0.6191068053E-36 -0.2456500381E-36 -0.3865158356E-35 -0.1741541265E-35 -0.3257670905E-36  0.2534437573E-31  0.4925291105E-35  0.1843377123E-32 -0.5066678456E-31  0.6260053849E-34  0.0000000000E+00  0.4925291105E-35  0.9803232012E-35  0.2534437573E-31  0.2534536196E-31  0.2724832375E-35 -0.9862299838E-36  0.2200458730E-35  0.1843460929E-32 -0.5066866361E-31  0.6200377963E-34 -0.8380656544E-37  0.1879051001E-35  0.5967588632E-36  0.2724832375E-35  0.9585344837E-35  0.2534536196E-31  0.2200458730E-35  0.2178871753E-36 -0.9862299838E-36
14 -0.5916976421E-36 -0.3996740967E-36 -0.1420989757E-36 -0.1059341645E-35 -0.9869962112E-36 -0.1965988266E-36  0.2508231884E-31  0.4941368518E-35  0.1799389208E-32 -0.5033227684E-31  0.6471060756E-34  0.0000000000E+00  0.4941368518E-35  0.9975372557E-35  0.2508231884E-31  0.2508330010E-31  0.2750421955E-35 -0.9812585450E-36  0.2190946563E-35  0.1799473199E-32 -0.5033413964E-31  0.6411732634E-34 -0.8399037019E-37  0.1862790811E-35  0.5932812268E-36  0.2750421955E-35  0.9760577132E-35  0.2508330010E-31  0.2190946563E-35  0.2147954253E-36 -0.9812585450E-36
15 -0.2219247382E-36 -0.3438074149E-36 -0.1317297357E-36 -0.9367135976E-36 -0.4658194388E-36 -0.1928191650E-36  0.2500687703E-31  0.4952457569E-35  0.1788985789E-32 -0.5036873186E-31  0.6517340575E-34  0.0000000000E+00  0.4952457569E-35  0.1001747552E-34  0.2500687703E-31  0.2500785178E-31  0.2762370164E-35 -0.9747457400E-36  0.2190087405E-35  0.1789069184E-32 -0.5037058016E-31  0.6458490220E-34 -0.8339511208E-37  0.1848295947E-35  0.5885035518E-36  0.2762370164E-35  0.9804991077E-35  0.2500785178E-31  0.2190087405E-35  0.2124844405E-36 -0.9747457400E-36
16 -0.1050638984E-36 -0.2453389985E-36 -0.1145185469E-36 -0.6853126102E-36 -0.2840142917E-36 -0.2269366178E-36  0.2502359992E-31  0.4957295759E-35  0.1802100758E-32 -0.5049067381E-31  0.6539796212E-34  0.0000000000E+00  0.4957295759E-35  0.1003809442E-34  0.2502359992E-31  0.2502457025E-31  0.2765914649E-35 -0.9703234694E-36  0.2191381109E-35  0.1802183769E-32 -0.5049251368E-31  0.6481338542E-34 -0.8301096187E-37  0.1839877051E-35  0.5845766965E-36  0.2765914649E-35  0.9827028158E-35  0.2502457025E-31  0.2191381109E-35  0.2110662609E-36 -0.9703234694E-36
17 -0.6789459907E-37 -0.1761563232E-36 -0.8812353313E-37 -0.4479154107E-36 -0.1196372690E-36 -0.2227403685E-36  0.2505540957E-31  0.4958944914E-35  0.1815585180E-32 -0.5055371611E-31  0.6551128350E-34  0.0000000000E+00  0.4958944914E-35  0.1004919920E-34  0.2505540957E-31  0.2505637748E-31  0.2766360887E-35 -0.9679181231E-36  0.2192584026E-35  0.1815668125E-32 -0.5055555218E-31  0.6492945210E-34 -0.8294451906E-37  0.1836071836E-35  0.5818314040E-36  0.2766360887E-35  0.9838894936E-35  0.2505637748E-31  0.2192584026E-35  0.2103042646E-36 -0.9679181231E-36
18 -0.4649525103E-37 -0.1296926662E-36 -0.6417341016E-37 -0.2749778064E-36 -0.2054659066E-37 -0.2030050157E-36  0.2508678519E-31  0.4958765315E-35  0.1820313589E-32 -0.5057859553E-31  0.6557775489E-34  0.0000000000E+00  0.4958765315E-35  0.1005566521E-34  0.2508678519E-31  0.2508775183E-31  0.2765522884E-35 -0.9666401439E-36  0.2193242431E-35  0.1820396611E-32 -0.5058042990E-31  0.6499785372E-34 -0.8302212964E-37  0.1834371170E-35  0.5799011686E-36  0.2765522884E-35  0.9845789320E-35  0.2508775183E-31  0.2193242431E-35  0.2098758855E-36 -0.9666401439E-36
19 -0.3770505078E-37 -0.1153068765E-36 -0.4902178190E-37 -0.1628136550E-36 -0.3528432372E-38 -0.1625008371E-36  0.2510688885E-31  0.4957642236E-35  0.1819014010E-32 -0.5057803905E-31  0.6561379586E-34  0.0000000000E+00  0.4957642236E-35  0.1005899071E-34  0.2510688885E-31  0.2510785484E-31  0.2764481749E-35 -0.9659907524E-36  0.2193160487E-35  0.1819097123E-32 -0.5057987270E-31  0.6503536713E-34 -0.8311285316E-37  0.1833656925E-35  0.5784287222E-36  0.2764481749E-35  0.9849402730E-35  0.2510785484E-31  0.2193160487E-35  0.2095879765E-36 -0.9659907524E-36
20 -0.3241627245E-37 -0.1058874809E-36 -0.4004717937E-37 -0.1015434230E-36 -0.2282534795E-37 -0.8725035589E-37  0.2512248860E-31  0.4956311708E-35  0.1815554868E-32 -0.5058690472E-31  0.6562795049E-34  0.0000000000E+00  0.4956311708E-35  0.1006004135E-34  0.2512248860E-31  0.2512345413E-31  0.2763522109E-35 -0.9655302752E-36  0.2192789600E-35  0.1815638048E-32 -0.5058873767E-31  0.6505074062E-34 -0.8317979198E-37  0.1832944713E-35  0.5772098680E-36  0.2763522109E-35  0.9850681653E-35  0.2512345413E-31  0.2192789600E-35  0.2093596951E-36 -0.9655302752E-36
21 -0.2746587481E-37 -0.9054508592E-37 -0.3221725149E-37 -0.6529186988E-37 -0.3040259165E-37 -0.6416845587E-37  0.2513680817E-31  0.4955112967E-35  0.1812539466E-32 -0.5061316035E-31  0.6562801000E-34  0.0000000000E+00  0.4955112967E-35  0.1005964699E-34  0.2513680817E-31  0.2513777328E-31  0.2762669357E-35 -0.9651097228E-36  0.2192443610E-35  0.1812622687E-32 -0.5061499241E-31  0.6505183495E-34 -0.8322180094E-37  0.1832061239E-35  0.5761750574E-36  0.2762669357E-35  0.9850473829E-35  0.2513777328E-31  0.2192443610E-35  0.2091731591E-36 -0.9651097228E-36
22 -0.2167843109E-37 -0.7190760037E-37 -0.2510191767E-37 -0.4308371690E-37 -0.2667098299E-37 -0.4502788137E-37  0.2515033739E-31  0.4954139553E-35  0.1810685455E-32 -0.5065001140E-31  0.6561999696E-34  0.0000000000E+00  0.4954139553E-35  0.1005849088E-34  0.2515033739E-31  0.2515130211E-31  0.2761909108E-35 -0.9647128013E-36  0.2192230446E-35  0.1810768696E-32 -0.5065184255E-31  0.6504468662E-34 -0.8324129331E-37  0.1831149980E-35  0.5753103341E-36  0.2761909108E-35  0.9849463803E-35  0.2515130211E-31  0.2192230446E-35  0.2090270792E-36 -0.9647128013E-36
23 -0.1684253637E-37 -0.5424886537E-37 -0.1911042579E-37 -0.3046051445E-37 -0.1987608194E-37 -0.3098009982E-37  0.2516222023E-31  0.4953383854E-35  0.1809834705E-32 -0.5068695571E-31  0.6560887711E-34  0.0000000000E+00  0.4953383854E-35  0.1005711508E-34  0.2516222023E-31  0.2516318460E-31  0.2761244566E-35 -0.9643685622E-36  0.2192139288E-35  0.1809917945E-32 -0.5068878609E-31  0.6503426848E-34 -0.8324021254E-37  0.1830384221E-35  0.5746086312E-36  0.2761244566E-35  0.9848195379E-35  0.2516318460E-31  0.2192139288E-35  0.2089197024E-36 -0.9643685622E-36
24 -0.1338676757E-37 -0.3933183958E-37 -0.1408760807E-37 -0.2342840959E-37 -0.1418557790E-37 -0.2133661156E-37  0.2517144714E-31  0.4952814327E-35  0.1809603274E-32 -0.5071613870E-31  0.6559797556E-34  0.0000000000E+00  0.4952814327E-35  0.1005586675E-34  0.2517144714E-31  0.2517241124E-31  0.2760699239E-35 -0.9640990835E-36  0.2192115088E-35  0.1809686498E-32 -0.5071796854E-31  0.6502391442E-34 -0.8322322566E-37  0.1829835454E-35  0.5740611352E-36  0.2760699239E-35  0.9847020290E-35  0.2517241124E-31  0.2192115088E-35  0.2088464627E-36 -0.9640990835E-36
25 -0.1067780290E-37 -0.2731259815E-37 -0.1000443816E-37 -0.1897068634E-37 -0.9771131189E-38 -0.1447001557E-37  0.2517768823E-31  0.4952398111E-35  0.1809678793E-32 -0.5073489243E-31  0.6558911306E-34  0.0000000000E+00  0.4952398111E-35  0.1005490988E-34  0.2517768823E-31  0.2517865213E-31  0.2760286471E-35 -0.9639055913E-36  0.2192111640E-35  0.1809761991E-32 -0.5073672191E-31  0.6501545931E-34 -0.8319837833E-37  0.1829480111E-35  0.5736537494E-36  0.2760286471E-35  0.9846108797E-35  0.2517865213E-31  0.2192111640E-35  0.2088010858E-36 -0.9639055913E-36
26 -0.8256135289E-38 -0.1784365230E-37 -0.6835505369E-38 -0.1550242757E-37 -0.6084084666E-38 -0.9211881767E-38  0.2518133576E-31  0.4952105074E-35  0.1809850315E-32 -0.5074463988E-31  0.6558277522E-34  0.0000000000E+00  0.4952105074E-35  0.1005426077E-34  0.2518133576E-31  0.2518229953E-31  0.2759998356E-35 -0.9637743280E-36  0.2192106718E-35  0.1809933488E-32 -0.5074646913E-31  0.6500940823E-34 -0.8317341106E-37  0.1829254573E-35  0.5733669904E-36  0.2759998356E-35  0.9845483994E-35  0.2518229953E-31  0.2192106718E-35  0.2087767725E-36 -0.9637743280E-36
27 -0.6032514372E-38 -0.1064760277E-37 -0.4507588745E-38 -0.1232043159E-37 -0.2888705175E-38 -0.5123944404E-38  0.2518315321E-31  0.4951907737E-35  0.1809999026E-32 -0.5074852976E-31  0.6557862276E-34  0.0000000000E+00  0.4951907737E-35  0.1005385463E-34  0.2518315321E-31  0.2518411690E-31  0.2759809975E-35 -0.9636868251E-36  0.2192097762E-35  0.1810082179E-32 -0.5075035886E-31  0.6500544603E-34 -0.8315300528E-37  0.1829100112E-35  0.5731767288E-36  0.2759809975E-35  0.9845087693E-35  0.2518411690E-31  0.2192097762E-35  0.2087669403E-36 -0.9636868251E-36
28 -0.4097306954E-38 -0.5535351782E-38 -0.2897848267E-38 -0.9293397846E-38 -0.3513559474E-39 -0.2188332240E-38  0.2518390424E-31  0.4951781360E-35  0.1810077873E-32 -0.5074951247E-31  0.6557599644E-34  0.0000000000E+00  0.4951781360E-35  0.1005360571E-34  0.2518390424E-31  0.2518486787E-31  0.2759691101E-35 -0.9636271106E-36  0.2192090258E-35  0.1810161011E-32 -0.5075134145E-31  0.6500293917E-34 -0.8313844806E-37  0.1828980866E-35  0.5730572667E-36  0.2759691101E-35  0.9844839879E-35  0.2518486787E-31  0.2192090258E-35  0.2087658298E-36 -0.9636271106E-36
29 -0.2543708473E-38 -0.2249128077E-38 -0.1863404421E-38 -0.6604652440E-38  0.1342976775E-38 -0.4188293294E-39  0.2518415154E-31  0.4951704468E-35  0.1810089625E-32 -0.5074950267E-31  0.6557428664E-34  0.0000000000E+00  0.4951704468E-35  0.1005344449E-34  0.2518415154E-31  0.2518511512E-31  0.2759615359E-35 -0.9635845080E-36  0.2192089109E-35  0.1810172753E-32 -0.5075133155E-31  0.6500130169E-34 -0.8312897215E-37  0.1828882337E-35  0.5729849574E-36  0.2759615359E-35  0.9844675537E-35  0.2518511512E-31  0.2192089109E-35  0.2087689563E-36 -0.9635845080E-36
30 -0.1418908597E-38 -0.4033998640E-39 -0.1247186441E-38 -0.4455000209E-38  0.2152736399E-38  0.3525677471E-39  0.2518421672E-31  0.4951659643E-35  0.1810059321E-32 -0.5074937652E-31  0.6557308223E-34  0.0000000000E+00  0.4951659643E-35  0.1005332881E-34  0.2518421672E-31  0.2518518027E-31  0.2759564473E-35 -0.9635531679E-36  0.2192095170E-35  0.1810142445E-32 -0.5075120533E-31  0.6500014120E-34 -0.8312318933E-37  0.1828802048E-35  0.5729410386E-36  0.2759564473E-35  0.9844555505E-35  0.2518518027E-31  0.2192095170E-35  0.2087733047E-36 -0.9635531679E-36
31 -0.6964711290E-39  0.4433501881E-39 -0.8980902439E-39 -0.2894746306E-38  0.2247974503E-38  0.4683260935E-39  0.2518423890E-31  0.4951634119E-35  0.1810013302E-32 -0.5074935347E-31  0.6557216889E-34  0.0000000000E+00  0.4951634119E-35  0.1005323918E-34  0.2518423890E-31  0.2518520243E-31  0.2759528009E-35 -0.9635301843E-36  0.2192106111E-35  0.1810096422E-32 -0.5075118221E-31  0.6499925625E-34 -0.8311988225E-37  0.1828740693E-35  0.5729126460E-36  0.2759528009E-35  0.9844461951E-35  0.2518520243E-31  0.2192106111E-35  0.2087772304E-36 -0.9635301843E-36
32 -0.2902933015E-39  0.6849681335E-39 -0.6961580086E-39 -0.1843994594E-38  0.1912100215E-38  0.2971974131E-39  0.2518425162E-31  0.4951619379E-35  0.1809967791E-32 -0.5074937303E-31  0.6557145909E-34  0.0000000000E+00  0.4951619379E-35  0.1005316884E-34  0.2518425162E-31  0.2518521514E-31  0.2759500961E-35 -0.9635139063E-36  0.2192118419E-35  0.1810050910E-32 -0.5075120173E-31  0.6499856685E-34 -0.8311821579E-37  0.1828697567E-35  0.5728922374E-36  0.2759500961E-35  0.9844388737E-35  0.2518521514E-31  0.2192118419E-35  0.2087801060E-36 -0.9635139063E-36
33 -0.9139832663E-40  0.6134102587E-39 -0.5646063402E-39 -0.1179141508E-38  0.1420732804E-38  0.8306201755E-40  0.2518425073E-31  0.4951610466E-35  0.1809928898E-32 -0.5074934417E-31  0.6557092048E-34  0.0000000000E+00  0.4951610466E-35  0.1005311564E-34  0.2518425073E-31  0.2518521423E-31  0.2759481116E-35 -0.9635029302E-36  0.2192129350E-35  0.1810012016E-32 -0.5075117284E-31  0.6499804439E-34 -0.8311762562E-37  0.1828669595E-35  0.5728760972E-36  0.2759481116E-35  0.9844333714E-35  0.2518521423E-31  0.2192129350E-35  0.2087819222E-36 -0.9635029302E-36
34 -0.6165389551E-41  0.4169547214E-39 -0.4629936915E-39 -0.7791050811E-39  0.9543996269E-39 -0.8355108988E-40  0.2518422971E-31  0.4951604826E-35  0.1809896878E-32 -0.5074923430E-31  0.6557053226E-34  0.0000000000E+00  0.4951604826E-35  0.1005307771E-34  0.2518422971E-31  0.2518519321E-31  0.2759467213E-35 -0.9634958559E-36  0.2192137613E-35  0.1809979996E-32 -0.5075106296E-31  0.6499766950E-34 -0.8311769584E-37  0.1828652486E-35  0.5728627663E-36  0.2759467213E-35  0.9844294765E-35  0.2518519321E-31  0.2192137613E-35  0.2087829461E-36 -0.9634958559E-36
35  0.2653528647E-40  0.2032643763E-39 -0.3737882975E-39 -0.5377651323E-39  0.5890817102E-39 -0.1952083136E-39  0.2518419062E-31  0.4951601266E-35  0.1809870275E-32 -0.5074906528E-31  0.6557026890E-34  0.0000000000E+00  0.4951601266E-35  0.1005305236E-34  0.2518419062E-31  0.2518515411E-31  0.2759458099E-35 -0.9634914042E-36  0.2192143167E-35  0.1809953394E-32 -0.5075089393E-31  0.6499741708E-34 -0.8311810456E-37  0.1828642201E-35  0.5728518122E-36  0.2759458099E-35  0.9844268869E-35  0.2518515411E-31  0.2192143167E-35  0.2087834910E-36 -0.9634914042E-36
36  0.3787394960E-40  0.2582711307E-40 -0.2921793041E-39 -0.3790932657E-39  0.3327795870E-39 -0.2591411826E-39  0.2518414172E-31  0.4951599209E-35  0.1809848014E-32 -0.5074887880E-31  0.6557010040E-34  0.0000000000E+00  0.4951599209E-35  0.1005303640E-34  0.2518414172E-31  0.2518510521E-31  0.2759452571E-35 -0.9634885764E-36  0.2192146637E-35  0.1809931132E-32 -0.5075070743E-31  0.6499725731E-34 -0.8311861870E-37  0.1828635782E-35  0.5728430907E-36  0.2759452571E-35  0.9844252601E-35  0.2518510521E-31  0.2192146637E-35  0.2087838024E-36 -0.9634885764E-36
37  0.4038312708E-40 -0.9493299009E-40 -0.2192970214E-39 -0.2641183202E-39  0.1668193111E-39 -0.2786318161E-39  0.2518409202E-31  0.4951598280E-35  0.1809829721E-32 -0.5074870856E-31  0.6556999796E-34  0.0000000000E+00  0.4951598280E-35  0.1005302688E-34  0.2518409202E-31  0.2518505551E-31  0.2759449500E-35 -0.9634867093E-36  0.2192148780E-35  0.1809912840E-32 -0.5075053719E-31  0.6499716155E-34 -0.8311909683E-37  0.1828631478E-35  0.5728364197E-36  0.2759449500E-35  0.9844242852E-35  0.2518505551E-31  0.2192148780E-35  0.2087840279E-36 -0.9634867093E-36
38  0.3810471999E-40 -0.1581957599E-39 -0.1576038264E-39 -0.1786614316E-39  0.6814355377E-40 -0.2612069366E-39  0.2518404763E-31  0.4951598154E-35  0.1809815281E-32 -0.5074857022E-31  0.6556993844E-34  0.0000000000E+00  0.4951598154E-35  0.1005302149E-34  0.2518404763E-31  0.2518501112E-31  0.2759447969E-35 -0.9634854231E-36  0.2192150185E-35  0.1809898401E-32 -0.5075039885E-31  0.6499710693E-34 -0.8311947747E-37  0.1828628427E-35  0.5728315111E-36  0.2759447969E-35  0.9844237252E-35  0.2518501112E-31  0.2192150185E-35  0.2087842336E-36 -0.9634854231E-36
39  0.3267988886E-40 -0.1747810933E-39 -0.1084322137E-39 -0.1173036577E-39  0.1634900829E-40 -0.2209199250E-39  0.2518401098E-31  0.4951598528E-35  0.1809804418E-32 -0.5074846440E-31  0.6556990540E-34  0.0000000000E+00  0.4951598528E-35  0.1005301863E-34  0.2518401098E-31  0.2518497447E-31  0.2759447325E-35 -0.9634845214E-36  0.2192151203E-35  0.1809887538E-32 -0.5075029302E-31  0.6499707738E-34 -0.8311975369E-37  0.1828626251E-35  0.5728280158E-36  0.2759447325E-35  0.9844234192E-35  0.2518497447E-31  0.2192151203E-35  0.2087844358E-36 -0.9634845214E-36
40  0.2561878600E-40 -0.1607975565E-39 -0.7138896168E-40 -0.7528323572E-40 -0.5484271263E-41 -0.1723034801E-39  0.2518398191E-31  0.4951599150E-35  0.1809796583E-32 -0.5074838443E-31  0.6556988828E-34  0.0000000000E+00  0.4951599150E-35  0.1005301728E-34  0.2518398191E-31  0.2518494540E-31  0.2759447155E-35 -0.9634838997E-36  0.2192151995E-35  0.1809879703E-32 -0.5075021305E-31  0.6499706269E-34 -0.8311994521E-37  0.1828624759E-35  0.5728255890E-36  0.2759447155E-35  0.9844232655E-35  0.2518494540E-31  0.2192151995E-35  0.2087846284E-36 -0.9634838997E-36
41  0.1843904352E-40 -0.1318622059E-39 -0.4481893192E-40 -0.4738694907E-40 -0.1056963647E-40 -0.1257715028E-39  0.2518395912E-31  0.4951599838E-35  0.1809791078E-32 -0.5074832275E-31  0.6556988054E-34  0.0000000000E+00  0.4951599838E-35  0.1005301682E-34  0.2518395912E-31  0.2518492260E-31  0.2759447217E-35 -0.9634834884E-36  0.2192152621E-35  0.1809874198E-32 -0.5075015138E-31  0.6499705660E-34 -0.8312007754E-37  0.1828623795E-35  0.5728239350E-36  0.2759447217E-35  0.9844232016E-35  0.2518492260E-31  0.2192152621E-35  0.2087848015E-36 -0.9634834884E-36
42  0.1222142634E-40 -0.9943374743E-40 -0.2654311433E-40 -0.2909809193E-40 -0.8134293619E-41 -0.8682265651E-40  0.2518394120E-31  0.4951600484E-35  0.1809787231E-32 -0.5074827394E-31  0.6556987818E-34  0.0000000000E+00  0.4951600484E-35  0.1005301683E-34  0.2518394120E-31  0.2518490469E-31  0.2759447378E-35 -0.9634832297E-36  0.2192153106E-35  0.1809870351E-32 -0.5075010257E-31  0.6499705536E-34 -0.8312017127E-37  0.1828623208E-35  0.5728228231E-36  0.2759447378E-35  0.9844231881E-35  0.2518490469E-31  0.2192153106E-35  0.2087849487E-36 -0.9634832297E-36
43  0.7440663316E-41 -0.7002993686E-40 -0.1443507351E-40 -0.1722983181E-40 -0.3639570556E-41 -0.5708812896E-40  0.2518392710E-31  0.4951601039E-35  0.1809784511E-32 -0.5074823498E-31  0.6556987860E-34  0.0000000000E+00  0.4951601039E-35  0.1005301707E-34  0.2518392710E-31  0.2518489058E-31  0.2759447569E-35 -0.9634830737E-36  0.2192153470E-35  0.1809867631E-32 -0.5075006361E-31  0.6499705651E-34 -0.8312023952E-37  0.1828622861E-35  0.5728220847E-36  0.2759447569E-35  0.9844231996E-35  0.2518489058E-31  0.2192153470E-35  0.2087850690E-36 -0.9634830737E-36
44  0.4112109321E-41 -0.4630175609E-40 -0.6711817172E-41 -0.9724795093E-41  0.3519432753E-42 -0.3584877426E-40  0.2518391609E-31  0.4951601488E-35  0.1809782554E-32 -0.5074820433E-31  0.6556988023E-34  0.0000000000E+00  0.4951601488E-35  0.1005301737E-34  0.2518391609E-31  0.2518487958E-31  0.2759447750E-35 -0.9634829807E-36  0.2192153738E-35  0.1809865674E-32 -0.5075003295E-31  0.6499705863E-34 -0.8312028963E-37  0.1828622652E-35  0.5728216005E-36  0.2759447750E-35  0.9844232206E-35  0.2518487958E-31  0.2192153738E-35  0.2087851646E-36 -0.9634829807E-36
45  0.2009316735E-41 -0.2857314236E-40 -0.2002767062E-41 -0.5208992329E-41  0.3072215252E-41 -0.2136307324E-40  0.2518390767E-31  0.4951601840E-35  0.1809781133E-32 -0.5074818091E-31  0.6556988214E-34  0.0000000000E+00  0.4951601840E-35  0.1005301766E-34  0.2518390767E-31  0.2518487115E-31  0.2759447905E-35 -0.9634829238E-36  0.2192153935E-35  0.1809864254E-32 -0.5075000953E-31  0.6499706085E-34 -0.8312032583E-37  0.1828622518E-35  0.5728212874E-36  0.2759447905E-35  0.9844232422E-35  0.2518487115E-31  0.2192153935E-35  0.2087852393E-36 -0.9634829238E-36
46  0.8202335157E-42 -0.1607578989E-40  0.6940744991E-42 -0.2678228701E-41  0.4597494484E-41 -0.1178117467E-40  0.2518390139E-31  0.4951602108E-35  0.1809780106E-32 -0.5074816363E-31  0.6556988386E-34  0.0000000000E+00  0.4951602108E-35  0.1005301790E-34  0.2518390139E-31  0.2518486487E-31  0.2759448026E-35 -0.9634828866E-36  0.2192154082E-35  0.1809863227E-32 -0.5074999225E-31  0.6499706278E-34 -0.8312035117E-37  0.1828622425E-35  0.5728210874E-36  0.2759448026E-35  0.9844232605E-35  0.2518486487E-31  0.2192154082E-35  0.2087852970E-36 -0.9634828866E-36
47  0.2400052196E-42 -0.7706410200E-41  0.2088066406E-41 -0.1366341458E-41  0.5250251929E-41 -0.5591413796E-41  0.2518389681E-31  0.4951602310E-35  0.1809779375E-32 -0.5074815125E-31  0.6556988525E-34  0.0000000000E+00  0.4951602310E-35  0.1005301809E-34  0.2518389681E-31  0.2518486030E-31  0.2759448118E-35 -0.9634828608E-36  0.2192154192E-35  0.1809862495E-32 -0.5074997987E-31  0.6499706429E-34 -0.8312036832E-37  0.1828622357E-35  0.5728209603E-36  0.2759448118E-35  0.9844232746E-35  0.2518486030E-31  0.2192154192E-35  0.2087853410E-36 -0.9634828608E-36
48  0.2028201028E-43 -0.2399982627E-41  0.2668166858E-41 -0.7191044300E-42  0.5328461883E-41 -0.1711571010E-41  0.2518389356E-31  0.4951602459E-35  0.1809778864E-32 -0.5074814254E-31  0.6556988627E-34  0.0000000000E+00  0.4951602459E-35  0.1005301822E-34  0.2518389356E-31  0.2518485704E-31  0.2759448184E-35 -0.9634828424E-36  0.2192154275E-35  0.1809861985E-32 -0.5074997116E-31  0.6499706539E-34 -0.8312037972E-37  0.1828622309E-35  0.5728208789E-36  0.2759448184E-35  0.9844232847E-35  0.2518485704E-31  0.2192154275E-35  0.2087853739E-36 -0.9634828424E-36
49 -0.1556082736E-43  0.7335801048E-42  0.2762948587E-41 -0.3889972873E-42  0.5042122187E-41  0.5943188276E-42  0.2518389126E-31  0.4951602568E-35  0.1809778513E-32 -0.5074813645E-31  0.6556988702E-34  0.0000000000E+00  0.4951602568E-35  0.1005301832E-34  0.2518389126E-31  0.2518485475E-31  0.2759448231E-35 -0.9634828294E-36  0.2192154337E-35  0.1809861634E-32 -0.5074996508E-31  0.6499706619E-34 -0.8312038737E-37  0.1828622276E-35  0.5728208253E-36  0.2759448231E-35  0.9844232921E-35  0.2518485475E-31  0.2192154337E-35  0.2087853981E-36 -0.9634828294E-36
50  0.2156451500E-43  0.2388479449E-41  0.2588029459E-41 -0.1993695522E-42  0.4533897696E-41  0.1832264790E-41  0.2518388966E-31  0.4951602648E-35  0.1809778273E-32 -0.5074813220E-31  0.6556988756E-34  0.0000000000E+00  0.4951602648E-35  0.1005301839E-34  0.2518388966E-31  0.2518485314E-31  0.2759448264E-35 -0.9634828203E-36  0.2192154384E-35  0.1809861393E-32 -0.5074996082E-31  0.6499706677E-34 -0.8312039271E-37  0.1828622254E-35  0.5728207884E-36  0.2759448264E-35  0.9844232975E-35  0.2518485314E-31  0.2192154384E-35  0.2087854153E-36 -0.9634828203E-36
51  0.7133150401E-43  0.3084268608E-41  0.2281521819E-41 -0.8018675612E-43  0.3909942576E-41  0.2363969553E-41  0.2518388854E-31  0.4951602705E-35  0.1809778107E-32 -0.5074812920E-31  0.6556988796E-34  0.0000000000E+00  0.4951602705E-35  0.1005301844E-34  0.2518388854E-31  0.2518485202E-31  0.2759448287E-35 -0.9634828142E-36  0.2192154418E-35  0.1809861227E-32 -0.5074995782E-31  0.6499706720E-34 -0.8312039665E-37  0.1828622240E-35  0.5728207615E-36  0.2759448287E-35  0.9844233015E-35  0.2518485202E-31  0.2192154418E-35  0.2087854273E-36 -0.9634828142E-36
52  0.1078696911E-42  0.3195936423E-41  0.1929037969E-41 -0.8195099604E-44  0.3253941631E-41  0.2454196677E-41  0.2518388775E-31  0.4951602747E-35  0.1809777990E-32 -0.5074812709E-31  0.6556988826E-34  0.0000000000E+00  0.4951602747E-35  0.1005301848E-34  0.2518388775E-31  0.2518485123E-31  0.2759448304E-35 -0.9634828100E-36  0.2192154443E-35  0.1809861110E-32 -0.5074995571E-31  0.6499706752E-34 -0.8312039970E-37  0.1828622231E-35  0.5728207409E-36  0.2759448304E-35  0.9844233046E-35  0.2518485123E-31  0.2192154443E-35  0.2087854355E-36 -0.9634828100E-36