TITLE="fun3d_case_title"
VARIABLES="Iteration" "R_1" "R_2" "R_3" "R_4" "R_5" "C_L" "C_D" "C_M_x" "C_M_y" "C_M_z" "Wall Time" "C_x" "C_y" "C_z" "C_Lp" "C_Dp" "C_Lv" "C_Dv" "C_M_xp" "C_M_yp" "C_M_zp" "C_M_xv" "C_M_yv" "C_M_zv" "C_xp" "C_yp" "C_zp" "C_xv" "C_yv" "C_zv"
ZONE  I=100 F=POINT
1  0.0000000000E+00  0.0000000000E+00  0.0000000000E+00  0.0000000000E+00  0.0000000000E+00  0.0000000000E+00  0.0000000000E+00  0.0000000000E+00  0.0000000000E+00  0.0000000000E+00  0.0000000000E+00  0.0000000000E+00  0.0000000000E+00  0.0000000000E+00  0.0000000000E+00  0.0000000000E+00  0.0000000000E+00  0.0000000000E+00  0.0000000000E+00  0.0000000000E+00  0.0000000000E+00  0.0000000000E+00  0.0000000000E+00  0.0000000000E+00  0.0000000000E+00  0.0000000000E+00  0.0000000000E+00  0.0000000000E+00  0.0000000000E+00  0.0000000000E+00
2  0.8674530369E-43  0.4242944600E-43  0.2126592865E-43  0.1034490418E-45  0.1883729549E-42  0.1963903611E-38 -0.1413240874E-38  0.8637524844E-38 -0.2951107581E-38 -0.1333625154E-37  0.0000000000E+00 -0.1413240874E-38 -0.1322833917E-37  0.1963903611E-38  0.1963903611E-38 -0.1413240874E-38  0.0000000000E+00  0.0000000000E+00  0.8637524844E-38 -0.2951107581E-38 -0.1333625154E-37  0.0000000000E+00  0.0000000000E+00  0.0000000000E+00 -0.1413240874E-38 -0.1322833917E-37  0.1963903611E-38  0.0000000000E+00  0.0000000000E+00  0.0000000000E+00
3 -0.5268325325E-40 -0.1746383795E-40 -0.2313575415E-42 -0.5028175708E-43 -0.1415792715E-39  0.2864326534E-38 -0.1961403725E-36  0.3220604927E-36 -0.8829657740E-37 -0.6937877427E-36  0.0000000000E+00 -0.1961403725E-36 -0.6762278062E-36  0.2864326534E-38  0.2864326534E-38 -0.1961403725E-36  0.0000000000E+00  0.0000000000E+00  0.3220604927E-36 -0.8829657740E-37 -0.6937877427E-36  0.0000000000E+00  0.0000000000E+00  0.0000000000E+00 -0.1961403725E-36 -0.6762278062E-36  0.2864326534E-38  0.0000000000E+00  0.0000000000E+00  0.0000000000E+00
4 -0.4714460056E-40 -0.7173798393E-41 -0.2607691094E-40 -0.9243741332E-42 -0.1313312812E-39 -0.4234685545E-36 -0.2046854838E-35  0.4311990858E-35 -0.7121098860E-36 -0.7332780381E-35  0.0000000000E+00 -0.2046854838E-35 -0.7055882963E-35 -0.4234685545E-36 -0.4234685545E-36 -0.2046854838E-35  0.0000000000E+00  0.0000000000E+00  0.4311990858E-35 -0.7121098860E-36 -0.7332780381E-35  0.0000000000E+00  0.0000000000E+00  0.0000000000E+00 -0.2046854838E-35 -0.7055882963E-35 -0.4234685545E-36  0.0000000000E+00  0.0000000000E+00  0.0000000000E+00
5 -0.5319053289E-40 -0.2381885708E-40 -0.1377494087E-39 -0.3772231830E-41 -0.1535516445E-39 -0.1197223080E-35 -0.5885616314E-35  0.1796707039E-34 -0.2956062446E-35 -0.3068817806E-34  0.0000000000E+00 -0.5885616314E-35 -0.2971291883E-34 -0.1197223080E-35 -0.1197223080E-35 -0.5885616314E-35  0.0000000000E+00  0.0000000000E+00  0.1796707039E-34 -0.2956062446E-35 -0.3068817806E-34  0.0000000000E+00  0.0000000000E+00  0.0000000000E+00 -0.5885616314E-35 -0.2971291883E-34 -0.1197223080E-35  0.0000000000E+00  0.0000000000E+00  0.0000000000E+00
6  0.1270697965E-39 -0.4114062037E-40 -0.2338226111E-39 -0.6950721362E-41  0.2958342992E-39 -0.2005099866E-35 -0.8693560374E-35  0.4098823767E-34 -0.5221364481E-35 -0.7106255571E-34  0.0000000000E+00 -0.8693560374E-35 -0.6874776179E-34 -0.2005099866E-35 -0.2005099866E-35 -0.8693560374E-35  0.0000000000E+00  0.0000000000E+00  0.4098823767E-34 -0.5221364481E-35 -0.7106255571E-34  0.0000000000E+00  0.0000000000E+00  0.0000000000E+00 -0.8693560374E-35 -0.6874776179E-34 -0.2005099866E-35  0.0000000000E+00  0.0000000000E+00  0.0000000000E+00
7  0.4030263308E-40  0.5304146181E-40  0.1182048857E-40 -0.2761264905E-41  0.2547138970E-40 -0.1620866485E-35 -0.5158084378E-35  0.3160762691E-34 -0.4252063779E-35 -0.5948144707E-34  0.0000000000E+00 -0.5158084378E-35 -0.5762093682E-34 -0.1620866485E-35 -0.1620866485E-35 -0.5158084378E-35  0.0000000000E+00  0.0000000000E+00  0.3160762691E-34 -0.4252063779E-35 -0.5948144707E-34  0.0000000000E+00  0.0000000000E+00  0.0000000000E+00 -0.5158084378E-35 -0.5762093682E-34 -0.1620866485E-35  0.0000000000E+00  0.0000000000E+00  0.0000000000E+00
8  0.2811881721E-40  0.1713029083E-39  0.2366242950E-39  0.3568552346E-41 -0.4765600804E-40  0.6878249739E-36 -0.8485493488E-36  0.1346868174E-34 -0.4377282792E-35 -0.3201111599E-34  0.0000000000E+00 -0.8485493488E-36 -0.3125990033E-34  0.6878249739E-36  0.6878249739E-36 -0.8485493488E-36  0.0000000000E+00  0.0000000000E+00  0.1346868174E-34 -0.4377282792E-35 -0.3201111599E-34  0.0000000000E+00  0.0000000000E+00  0.0000000000E+00 -0.8485493488E-36 -0.3125990033E-34  0.6878249739E-36  0.0000000000E+00  0.0000000000E+00  0.0000000000E+00
9  0.2161056882E-39  0.4019931042E-40  0.4725980531E-41  0.1277252805E-40  0.5236421584E-39  0.2143338859E-35  0.2411724515E-35 -0.5340216316E-35 -0.2675346670E-35  0.2141780988E-35  0.0000000000E+00  0.2411724515E-35  0.9628370575E-37  0.2143338859E-35  0.2143338859E-35  0.2411724515E-35  0.0000000000E+00  0.0000000000E+00 -0.5340216316E-35 -0.2675346670E-35  0.2141780988E-35  0.0000000000E+00  0.0000000000E+00  0.0000000000E+00  0.2411724515E-35  0.9628370575E-37  0.2143338859E-35  0.0000000000E+00  0.0000000000E+00  0.0000000000E+00
10  0.2003485518E-39 -0.3396271375E-41  0.6881456138E-40  0.5419844065E-41  0.5603349087E-39  0.1801347316E-35  0.1994249218E-35 -0.8239708295E-35 -0.9160846014E-36  0.1322948365E-34  0.0000000000E+00  0.1994249218E-35  0.9722720853E-35  0.1801347316E-35  0.1801347316E-35  0.1994249218E-35  0.0000000000E+00  0.0000000000E+00 -0.8239708295E-35 -0.9160846014E-36  0.1322948365E-34  0.0000000000E+00  0.0000000000E+00  0.0000000000E+00  0.1994249218E-35  0.9722720853E-35  0.1801347316E-35  0.0000000000E+00  0.0000000000E+00  0.0000000000E+00
11  0.1411532193E-39  0.1293117627E-39  0.2846777160E-39 -0.3776760307E-41  0.4161933975E-39 -0.1704822890E-36 -0.3379779353E-36 -0.4382635835E-35  0.8563986690E-36  0.1228629570E-34  0.0000000000E+00 -0.3379779353E-36  0.9041493624E-35 -0.1704822890E-36 -0.1704822890E-36 -0.3379779353E-36  0.0000000000E+00  0.0000000000E+00 -0.4382635835E-35  0.8563986690E-36  0.1228629570E-34  0.0000000000E+00  0.0000000000E+00  0.0000000000E+00 -0.3379779353E-36  0.9041493624E-35 -0.1704822890E-36  0.0000000000E+00  0.0000000000E+00  0.0000000000E+00
12  0.1959563422E-39  0.1350189517E-39  0.2129248057E-39  0.1157018584E-40  0.4639518890E-39 -0.1591793547E-35 -0.3220914252E-35  0.2966507437E-35  0.7727810528E-37 -0.1283725239E-36  0.0000000000E+00 -0.3220914252E-35 -0.6291488839E-36 -0.1591793547E-35 -0.1591793547E-35 -0.3220914252E-35  0.0000000000E+00  0.0000000000E+00  0.2966507437E-35  0.7727810528E-37 -0.1283725239E-36  0.0000000000E+00  0.0000000000E+00  0.0000000000E+00 -0.3220914252E-35 -0.6291488839E-36 -0.1591793547E-35  0.0000000000E+00  0.0000000000E+00  0.0000000000E+00
13  0.2166519277E-39  0.1074081321E-39  0.2132092703E-39  0.2378489811E-40  0.5387999428E-39 -0.1326551756E-35 -0.4813772132E-35  0.9081499822E-35 -0.2595271689E-35 -0.1628566883E-34  0.0000000000E+00 -0.4813772132E-35 -0.1323045665E-34 -0.1326551756E-35 -0.1326551756E-35 -0.4813772132E-35  0.0000000000E+00  0.0000000000E+00  0.9081499822E-35 -0.2595271689E-35 -0.1628566883E-34  0.0000000000E+00  0.0000000000E+00  0.0000000000E+00 -0.4813772132E-35 -0.1323045665E-34 -0.1326551756E-35  0.0000000000E+00  0.0000000000E+00  0.0000000000E+00
14  0.2105963992E-39  0.1009848657E-39  0.2431748255E-39  0.1418871458E-40  0.5741584133E-39 -0.8581329131E-37 -0.4666521503E-35  0.1281793912E-34 -0.5026861704E-35 -0.2926754337E-34  0.0000000000E+00 -0.4666521503E-35 -0.2424739460E-34 -0.8581329131E-37 -0.8581329131E-37 -0.4666521503E-35  0.0000000000E+00  0.0000000000E+00  0.1281793912E-34 -0.5026861704E-35 -0.2926754337E-34  0.0000000000E+00  0.0000000000E+00  0.0000000000E+00 -0.4666521503E-35 -0.2424739460E-34 -0.8581329131E-37  0.0000000000E+00  0.0000000000E+00  0.0000000000E+00
15  0.1930789125E-39  0.7262624191E-40  0.1972122496E-39  0.5785582811E-41  0.5067616854E-39  0.8335217583E-36 -0.2968383930E-35  0.1212073923E-34 -0.5024200878E-35 -0.2905827281E-34  0.0000000000E+00 -0.2968383930E-35 -0.2635667238E-34  0.8335217583E-36  0.8335217583E-36 -0.2968383930E-35  0.0000000000E+00  0.0000000000E+00  0.1212073923E-34 -0.5024200878E-35 -0.2905827281E-34  0.0000000000E+00  0.0000000000E+00  0.0000000000E+00 -0.2968383930E-35 -0.2635667238E-34  0.8335217583E-36  0.0000000000E+00  0.0000000000E+00  0.0000000000E+00
16  0.1610649169E-39  0.9041130317E-40  0.2101955995E-39  0.1056230066E-40  0.3943838929E-39  0.7903571544E-36 -0.1015718439E-35  0.8759517055E-35 -0.2907075964E-35 -0.1766014294E-34  0.0000000000E+00 -0.1015718439E-35 -0.2034008038E-34  0.7903571544E-36  0.7903571544E-36 -0.1015718439E-35  0.0000000000E+00  0.0000000000E+00  0.8759517055E-35 -0.2907075964E-35 -0.1766014294E-34  0.0000000000E+00  0.0000000000E+00  0.0000000000E+00 -0.1015718439E-35 -0.2034008038E-34  0.7903571544E-36  0.0000000000E+00  0.0000000000E+00  0.0000000000E+00
17  0.1719493184E-39  0.9112169524E-40  0.1997078332E-39  0.1729290958E-40  0.4243893021E-39  0.1504666218E-36  0.1085070315E-36  0.4822405941E-35 -0.5170495516E-36 -0.3654915166E-35  0.0000000000E+00  0.1085070315E-36 -0.1103160963E-34  0.1504666218E-36  0.1504666218E-36  0.1085070315E-36  0.0000000000E+00  0.0000000000E+00  0.4822405941E-35 -0.5170495516E-36 -0.3654915166E-35  0.0000000000E+00  0.0000000000E+00  0.0000000000E+00  0.1085070315E-36 -0.1103160963E-34  0.1504666218E-36  0.0000000000E+00  0.0000000000E+00  0.0000000000E+00
18  0.1836081908E-39  0.6356596636E-40  0.1627854783E-39  0.1341638875E-40  0.4808351619E-39 -0.3188313885E-36 -0.1782259990E-36  0.2481746415E-35  0.1122514398E-36  0.2736510460E-35  0.0000000000E+00 -0.1782259990E-36 -0.4621985817E-35 -0.3188313885E-36 -0.3188313885E-36 -0.1782259990E-36  0.0000000000E+00  0.0000000000E+00  0.2481746415E-35  0.1122514398E-36  0.2736510460E-35  0.0000000000E+00  0.0000000000E+00  0.0000000000E+00 -0.1782259990E-36 -0.4621985817E-35 -0.3188313885E-36  0.0000000000E+00  0.0000000000E+00  0.0000000000E+00
19  0.1468206313E-39  0.6934681069E-40  0.1871671311E-39  0.5505450837E-41  0.3635193735E-39 -0.2903155523E-36 -0.1526717488E-35  0.2618660927E-35 -0.1229266355E-35 -0.1802134469E-35  0.0000000000E+00 -0.1526717488E-35 -0.4244113284E-35 -0.2903155523E-36 -0.2903155523E-36 -0.1526717488E-35  0.0000000000E+00  0.0000000000E+00  0.2618660927E-35 -0.1229266355E-35 -0.1802134469E-35  0.0000000000E+00  0.0000000000E+00  0.0000000000E+00 -0.1526717488E-35 -0.4244113284E-35 -0.2903155523E-36  0.0000000000E+00  0.0000000000E+00  0.0000000000E+00
20  0.1317728223E-39  0.7760184268E-40  0.1776559039E-39  0.8518804810E-41  0.3056466423E-39 -0.8227677583E-38 -0.2984553855E-35  0.4680652778E-35 -0.3145725917E-35 -0.1237046823E-34  0.0000000000E+00 -0.2984553855E-35 -0.8699646488E-35 -0.8227677583E-38 -0.8227677583E-38 -0.2984553855E-35  0.0000000000E+00  0.0000000000E+00  0.4680652778E-35 -0.3145725917E-35 -0.1237046823E-34  0.0000000000E+00  0.0000000000E+00  0.0000000000E+00 -0.2984553855E-35 -0.8699646488E-35 -0.8227677583E-38  0.0000000000E+00  0.0000000000E+00  0.0000000000E+00
21  0.1432567294E-39  0.6360054458E-40  0.1371953873E-39  0.1487253354E-40  0.3561974315E-39  0.2106016933E-36 -0.3594642931E-35  0.6927419936E-35 -0.4055748636E-35 -0.2071579029E-34  0.0000000000E+00 -0.3594642931E-35 -0.1382605268E-34  0.2106016933E-36  0.2106016933E-36 -0.3594642931E-35  0.0000000000E+00  0.0000000000E+00  0.6927419936E-35 -0.4055748636E-35 -0.2071579029E-34  0.0000000000E+00  0.0000000000E+00  0.0000000000E+00 -0.3594642931E-35 -0.1382605268E-34  0.2106016933E-36  0.0000000000E+00  0.0000000000E+00  0.0000000000E+00
22  0.1297829523E-39  0.5229756181E-40  0.1496173103E-39  0.1057444661E-40  0.3340945347E-39  0.1961523739E-36 -0.3192561689E-35  0.8421758766E-35 -0.3548275736E-35 -0.2265018428E-34  0.0000000000E+00 -0.3192561689E-35 -0.1699071343E-34  0.1961523739E-36  0.1961523739E-36 -0.3192561689E-35  0.0000000000E+00  0.0000000000E+00  0.8421758766E-35 -0.3548275736E-35 -0.2265018428E-34  0.0000000000E+00  0.0000000000E+00  0.0000000000E+00 -0.3192561689E-35 -0.1699071343E-34  0.1961523739E-36  0.0000000000E+00  0.0000000000E+00  0.0000000000E+00
23  0.1093641582E-39  0.4650121587E-40  0.1476488027E-39  0.4783583108E-41  0.2690031520E-39  0.2050670710E-37 -0.2222266426E-35  0.8749695560E-35 -0.2330194281E-35 -0.1905007198E-34  0.0000000000E+00 -0.2222266426E-35 -0.1745685564E-34  0.2050670710E-37  0.2050670710E-37 -0.2222266426E-35  0.0000000000E+00  0.0000000000E+00  0.8749695560E-35 -0.2330194281E-35 -0.1905007198E-34  0.0000000000E+00  0.0000000000E+00  0.0000000000E+00 -0.2222266426E-35 -0.1745685564E-34  0.2050670710E-37  0.0000000000E+00  0.0000000000E+00  0.0000000000E+00
24  0.1014111389E-39  0.4048406376E-40  0.1153375688E-39  0.7328249672E-41  0.2339319112E-39 -0.9843154520E-37 -0.1364953793E-35  0.7949706938E-35 -0.1502764561E-35 -0.1343311513E-34  0.0000000000E+00 -0.1364953793E-35 -0.1577400035E-34 -0.9843154520E-37 -0.9843154520E-37 -0.1364953793E-35  0.0000000000E+00  0.0000000000E+00  0.7949706938E-35 -0.1502764561E-35 -0.1343311513E-34  0.0000000000E+00  0.0000000000E+00  0.0000000000E+00 -0.1364953793E-35 -0.1577400035E-34 -0.9843154520E-37  0.0000000000E+00  0.0000000000E+00  0.0000000000E+00
25  0.9727089367E-40  0.3321807943E-40  0.1063000829E-39  0.9826077820E-41  0.2247718559E-39 -0.3677958913E-37 -0.1067327837E-35  0.6534478826E-35 -0.1552448886E-35 -0.9177265954E-35  0.0000000000E+00 -0.1067327837E-35 -0.1319373122E-34 -0.3677958913E-37 -0.3677958913E-37 -0.1067327837E-35  0.0000000000E+00  0.0000000000E+00  0.6534478826E-35 -0.1552448886E-35 -0.9177265954E-35  0.0000000000E+00  0.0000000000E+00  0.0000000000E+00 -0.1067327837E-35 -0.1319373122E-34 -0.3677958913E-37  0.0000000000E+00  0.0000000000E+00  0.0000000000E+00
26  0.9138540370E-40  0.2556263940E-40  0.1078872004E-39  0.6106966838E-41  0.2146815349E-39  0.1061662665E-36 -0.1397075906E-35  0.5354170399E-35 -0.2160791542E-35 -0.8112690613E-35  0.0000000000E+00 -0.1397075906E-35 -0.1110985823E-34  0.1061662665E-36  0.1061662665E-36 -0.1397075906E-35  0.0000000000E+00  0.0000000000E+00  0.5354170399E-35 -0.2160791542E-35 -0.8112690613E-35  0.0000000000E+00  0.0000000000E+00  0.0000000000E+00 -0.1397075906E-35 -0.1110985823E-34  0.1061662665E-36  0.0000000000E+00  0.0000000000E+00  0.0000000000E+00
27  0.7974937542E-40  0.2256147695E-40  0.9746157627E-40  0.2968671343E-41  0.1818844822E-39  0.1582398904E-36 -0.2056900078E-35  0.5146577366E-35 -0.2670608829E-35 -0.1030655996E-34  0.0000000000E+00 -0.2056900078E-35 -0.1061539977E-34  0.1582398904E-36  0.1582398904E-36 -0.2056900078E-35  0.0000000000E+00  0.0000000000E+00  0.5146577366E-35 -0.2670608829E-35 -0.1030655996E-34  0.0000000000E+00  0.0000000000E+00  0.0000000000E+00 -0.2056900078E-35 -0.1061539977E-34  0.1582398904E-36  0.0000000000E+00  0.0000000000E+00  0.0000000000E+00
28  0.6855921255E-40  0.2543653047E-40  0.8309957114E-40  0.4945710336E-41  0.1538536364E-39  0.6306363134E-37 -0.2618916281E-35  0.5915951623E-35 -0.2726825849E-35 -0.1417084201E-34  0.0000000000E+00 -0.2618916281E-35 -0.1170985699E-34  0.6306363134E-37  0.6306363134E-37 -0.2618916281E-35  0.0000000000E+00  0.0000000000E+00  0.5915951623E-35 -0.2726825849E-35 -0.1417084201E-34  0.0000000000E+00  0.0000000000E+00  0.0000000000E+00 -0.2618916281E-35 -0.1170985699E-34  0.6306363134E-37  0.0000000000E+00  0.0000000000E+00  0.0000000000E+00
29  0.6658704729E-40  0.2807301655E-40  0.7401134125E-40  0.6609819093E-41  0.1556513977E-39 -0.7596626927E-37 -0.2780617330E-35  0.7025123370E-35 -0.2454342992E-35 -0.1747281691E-34  0.0000000000E+00 -0.2780617330E-35 -0.1351293339E-34 -0.7596626927E-37 -0.7596626927E-37 -0.2780617330E-35  0.0000000000E+00  0.0000000000E+00  0.7025123370E-35 -0.2454342992E-35 -0.1747281691E-34  0.0000000000E+00  0.0000000000E+00  0.0000000000E+00 -0.2780617330E-35 -0.1351293339E-34 -0.7596626927E-37  0.0000000000E+00  0.0000000000E+00  0.0000000000E+00
30  0.6460582543E-40  0.2636643608E-40  0.7359314457E-40  0.4510434803E-41  0.1518125899E-39 -0.1334972444E-36 -0.2525986475E-35  0.7748221016E-35 -0.2187317637E-35 -0.1849546754E-34  0.0000000000E+00 -0.2525986475E-35 -0.1492101355E-34 -0.1334972444E-36 -0.1334972444E-36 -0.2525986475E-35  0.0000000000E+00  0.0000000000E+00  0.7748221016E-35 -0.2187317637E-35 -0.1849546754E-34  0.0000000000E+00  0.0000000000E+00  0.0000000000E+00 -0.2525986475E-35 -0.1492101355E-34 -0.1334972444E-36  0.0000000000E+00  0.0000000000E+00  0.0000000000E+00
31  0.5570199487E-40  0.2366538127E-40  0.7016287897E-40  0.2667836342E-41  0.1259642617E-39 -0.7818911942E-37 -0.2078208749E-35  0.7785508546E-35 -0.2109455571E-35 -0.1707205739E-34  0.0000000000E+00 -0.2078208749E-35 -0.1533903776E-34 -0.7818911942E-37 -0.7818911942E-37 -0.2078208749E-35  0.0000000000E+00  0.0000000000E+00  0.7785508546E-35 -0.2109455571E-35 -0.1707205739E-34  0.0000000000E+00  0.0000000000E+00  0.0000000000E+00 -0.2078208749E-35 -0.1533903776E-34 -0.7818911942E-37  0.0000000000E+00  0.0000000000E+00  0.0000000000E+00
32  0.4836604874E-40  0.2007868581E-40  0.5759930595E-40  0.3501919479E-41  0.1054852186E-39  0.1841651244E-37 -0.1728378774E-35  0.7303137896E-35 -0.2160169308E-35 -0.1442295076E-34  0.0000000000E+00 -0.1728378774E-35 -0.1477674109E-34  0.1841651244E-37  0.1841651244E-37 -0.1728378774E-35  0.0000000000E+00  0.0000000000E+00  0.7303137896E-35 -0.2160169308E-35 -0.1442295076E-34  0.0000000000E+00  0.0000000000E+00  0.0000000000E+00 -0.1728378774E-35 -0.1477674109E-34  0.1841651244E-37  0.0000000000E+00  0.0000000000E+00  0.0000000000E+00
33  0.4622591402E-40  0.1355221285E-40  0.4836783164E-40  0.3917003138E-41  0.1017177736E-39  0.6622275634E-37 -0.1656604927E-35  0.6719670157E-35 -0.2185878110E-35 -0.1228763423E-34  0.0000000000E+00 -0.1656604927E-35 -0.1374345996E-34  0.6622275634E-37  0.6622275634E-37 -0.1656604927E-35  0.0000000000E+00  0.0000000000E+00  0.6719670157E-35 -0.2185878110E-35 -0.1228763423E-34  0.0000000000E+00  0.0000000000E+00  0.0000000000E+00 -0.1656604927E-35 -0.1374345996E-34  0.6622275634E-37  0.0000000000E+00  0.0000000000E+00  0.0000000000E+00
34  0.4297953728E-40  0.7860196647E-41  0.4735867129E-40  0.2518891097E-41  0.9596202924E-40  0.3136261250E-37 -0.1852345647E-35  0.6379218544E-35 -0.2129989277E-35 -0.1178283689E-34  0.0000000000E+00 -0.1852345647E-35 -0.1285855634E-34  0.3136261250E-37  0.3136261250E-37 -0.1852345647E-35  0.0000000000E+00  0.0000000000E+00  0.6379218544E-35 -0.2129989277E-35 -0.1178283689E-34  0.0000000000E+00  0.0000000000E+00  0.0000000000E+00 -0.1852345647E-35 -0.1285855634E-34  0.3136261250E-37  0.0000000000E+00  0.0000000000E+00  0.0000000000E+00
35  0.3680018157E-40  0.6747318439E-41  0.4397146057E-40  0.1780128830E-41  0.8159729661E-40 -0.4607556066E-37 -0.2153640398E-35  0.6399643123E-35 -0.2063007355E-35 -0.1287537333E-34  0.0000000000E+00 -0.2153640398E-35 -0.1256479797E-34 -0.4607556066E-37 -0.4607556066E-37 -0.2153640398E-35  0.0000000000E+00  0.0000000000E+00  0.6399643123E-35 -0.2063007355E-35 -0.1287537333E-34  0.0000000000E+00  0.0000000000E+00  0.0000000000E+00 -0.2153640398E-35 -0.1256479797E-34 -0.4607556066E-37  0.0000000000E+00  0.0000000000E+00  0.0000000000E+00
36  0.3283174964E-40  0.9954362707E-41  0.3651093093E-40  0.2509534121E-41  0.7348634081E-40 -0.9981077455E-37 -0.2367214604E-35  0.6652496693E-35 -0.2075526570E-35 -0.1458083046E-34  0.0000000000E+00 -0.2367214604E-35 -0.1287230349E-34 -0.9981077455E-37 -0.9981077455E-37 -0.2367214604E-35  0.0000000000E+00  0.0000000000E+00  0.6652496693E-35 -0.2075526570E-35 -0.1458083046E-34  0.0000000000E+00  0.0000000000E+00  0.0000000000E+00 -0.2367214604E-35 -0.1287230349E-34 -0.9981077455E-37  0.0000000000E+00  0.0000000000E+00  0.0000000000E+00
37  0.3218286357E-40  0.1375737775E-40  0.3425614723E-40  0.2592191189E-41  0.7368213674E-40 -0.9435259910E-37 -0.2387334524E-35  0.6933710310E-35 -0.2168634894E-35 -0.1579097028E-34  0.0000000000E+00 -0.2387334524E-35 -0.1348419054E-34 -0.9435259910E-37 -0.9435259910E-37 -0.2387334524E-35  0.0000000000E+00  0.0000000000E+00  0.6933710310E-35 -0.2168634894E-35 -0.1579097028E-34  0.0000000000E+00  0.0000000000E+00  0.0000000000E+00 -0.2387334524E-35 -0.1348419054E-34 -0.9435259910E-37  0.0000000000E+00  0.0000000000E+00  0.0000000000E+00
38  0.3006454438E-40  0.1374260720E-40  0.3633169136E-40  0.1570029158E-41  0.6733365233E-40 -0.4879813837E-37 -0.2239012411E-35  0.7097091220E-35 -0.2253611337E-35 -0.1591228547E-34  0.0000000000E+00 -0.2239012411E-35 -0.1401092783E-34 -0.4879813837E-37 -0.4879813837E-37 -0.2239012411E-35  0.0000000000E+00  0.0000000000E+00  0.7097091220E-35 -0.2253611337E-35 -0.1591228547E-34  0.0000000000E+00  0.0000000000E+00  0.0000000000E+00 -0.2239012411E-35 -0.1401092783E-34 -0.4879813837E-37  0.0000000000E+00  0.0000000000E+00  0.0000000000E+00
39  0.2517766093E-40  0.1097352508E-40  0.3349298852E-40  0.1127306631E-41  0.5306543889E-40 -0.7161098825E-38 -0.2038165166E-35  0.7107782812E-35 -0.2247304821E-35 -0.1508555907E-34  0.0000000000E+00 -0.2038165166E-35 -0.1420516712E-34 -0.7161098825E-38 -0.7161098825E-38 -0.2038165166E-35  0.0000000000E+00  0.0000000000E+00  0.7107782812E-35 -0.2247304821E-35 -0.1508555907E-34  0.0000000000E+00  0.0000000000E+00  0.0000000000E+00 -0.2038165166E-35 -0.1420516712E-34 -0.7161098825E-38  0.0000000000E+00  0.0000000000E+00  0.0000000000E+00
40  0.2096627100E-40  0.6861008728E-41  0.2641479902E-40  0.1482334793E-41  0.4156616683E-40  0.1958452537E-38 -0.1906947410E-35  0.6998003075E-35 -0.2153425987E-35 -0.1391134273E-34  0.0000000000E+00 -0.1906947410E-35 -0.1402216820E-34  0.1958452537E-38  0.1958452537E-38 -0.1906947410E-35  0.0000000000E+00  0.0000000000E+00  0.6998003075E-35 -0.2153425987E-35 -0.1391134273E-34  0.0000000000E+00  0.0000000000E+00  0.0000000000E+00 -0.1906947410E-35 -0.1402216820E-34  0.1958452537E-38  0.0000000000E+00  0.0000000000E+00  0.0000000000E+00
41  0.1921814302E-40  0.2742501429E-41  0.2181428578E-40  0.1340779226E-41  0.3749347941E-40 -0.1732257752E-37 -0.1904025935E-35  0.6835051905E-35 -0.2054956070E-35 -0.1305306872E-34  0.0000000000E+00 -0.1904025935E-35 -0.1361369984E-34 -0.1732257752E-37 -0.1732257752E-37 -0.1904025935E-35  0.0000000000E+00  0.0000000000E+00  0.6835051905E-35 -0.2054956070E-35 -0.1305306872E-34  0.0000000000E+00  0.0000000000E+00  0.0000000000E+00 -0.1904025935E-35 -0.1361369984E-34 -0.1732257752E-37  0.0000000000E+00  0.0000000000E+00  0.0000000000E+00
42  0.1769623214E-40  0.4691319852E-42  0.2050255554E-40  0.6677024485E-42  0.3484196763E-40 -0.4067853912E-37 -0.2004815292E-35  0.6693821345E-35 -0.2036495504E-35 -0.1289273586E-34  0.0000000000E+00 -0.2004815292E-35 -0.1322199731E-34 -0.4067853912E-37 -0.4067853912E-37 -0.2004815292E-35  0.0000000000E+00  0.0000000000E+00  0.6693821345E-35 -0.2036495504E-35 -0.1289273586E-34  0.0000000000E+00  0.0000000000E+00  0.0000000000E+00 -0.2004815292E-35 -0.1322199731E-34 -0.4067853912E-37  0.0000000000E+00  0.0000000000E+00  0.0000000000E+00
43  0.1526449740E-40  0.8886501445E-42  0.1843594102E-40  0.4370923036E-42  0.3036479529E-40 -0.4778309961E-37 -0.2132383653E-35  0.6630649620E-35 -0.2112983249E-35 -0.1338373358E-34  0.0000000000E+00 -0.2132383653E-35 -0.1304162046E-34 -0.4778309961E-37 -0.4778309961E-37 -0.2132383653E-35  0.0000000000E+00  0.0000000000E+00  0.6630649620E-35 -0.2112983249E-35 -0.1338373358E-34  0.0000000000E+00  0.0000000000E+00  0.0000000000E+00 -0.2132383653E-35 -0.1304162046E-34 -0.4778309961E-37  0.0000000000E+00  0.0000000000E+00  0.0000000000E+00
44  0.1372212945E-40  0.3285429687E-41  0.1582672534E-40  0.6362834471E-42  0.2793820572E-40 -0.3663411198E-37 -0.2209483116E-35  0.6663629513E-35 -0.2224247333E-35 -0.1413968684E-34  0.0000000000E+00 -0.2209483116E-35 -0.1312609611E-34 -0.3663411198E-37 -0.3663411198E-37 -0.2209483116E-35  0.0000000000E+00  0.0000000000E+00  0.6663629513E-35 -0.2224247333E-35 -0.1413968684E-34  0.0000000000E+00  0.0000000000E+00  0.0000000000E+00 -0.2209483116E-35 -0.1312609611E-34 -0.3663411198E-37  0.0000000000E+00  0.0000000000E+00  0.0000000000E+00
45  0.1324751503E-40  0.4844010264E-41  0.1522057257E-40  0.5343855171E-42  0.2702778686E-40 -0.2020929938E-37 -0.2202752999E-35  0.6764158512E-35 -0.2290441068E-35 -0.1470032555E-34  0.0000000000E+00 -0.2202752999E-35 -0.1338203510E-34 -0.2020929938E-37 -0.2020929938E-37 -0.2202752999E-35  0.0000000000E+00  0.0000000000E+00  0.6764158512E-35 -0.2290441068E-35 -0.1470032555E-34  0.0000000000E+00  0.0000000000E+00  0.0000000000E+00 -0.2202752999E-35 -0.1338203510E-34 -0.2020929938E-37  0.0000000000E+00  0.0000000000E+00  0.0000000000E+00
46  0.1177509614E-40  0.4255427333E-41  0.1503522632E-40  0.1744890177E-42  0.2311069954E-40 -0.1173240465E-37 -0.2132790002E-35  0.6874188125E-35 -0.2275420110E-35 -0.1480249484E-34  0.0000000000E+00 -0.2132790002E-35 -0.1364613474E-34 -0.1173240465E-37 -0.1173240465E-37 -0.2132790002E-35  0.0000000000E+00  0.0000000000E+00  0.6874188125E-35 -0.2275420110E-35 -0.1480249484E-34  0.0000000000E+00  0.0000000000E+00  0.0000000000E+00 -0.2132790002E-35 -0.1364613474E-34 -0.1173240465E-37  0.0000000000E+00  0.0000000000E+00  0.0000000000E+00
47  0.9093749214E-41  0.2053837372E-41  0.1256246095E-40  0.3138439978E-43  0.1633681078E-40 -0.1459253985E-37 -0.2051925995E-35  0.6938702130E-35 -0.2206268531E-35 -0.1449562578E-34  0.0000000000E+00 -0.2051925995E-35 -0.1378541494E-34 -0.1459253985E-37 -0.1459253985E-37 -0.2051925995E-35  0.0000000000E+00  0.0000000000E+00  0.6938702130E-35 -0.2206268531E-35 -0.1449562578E-34  0.0000000000E+00  0.0000000000E+00  0.0000000000E+00 -0.2051925995E-35 -0.1378541494E-34 -0.1459253985E-37  0.0000000000E+00  0.0000000000E+00  0.0000000000E+00
48  0.7053303352E-41 -0.5606487219E-42  0.8980232385E-41  0.4363828390E-43  0.1127648840E-40 -0.2275952708E-37 -0.2008405061E-35  0.6934407287E-35 -0.2142864161E-35 -0.1405353549E-34  0.0000000000E+00 -0.2008405061E-35 -0.1375970380E-34 -0.2275952708E-37 -0.2275952708E-37 -0.2008405061E-35  0.0000000000E+00  0.0000000000E+00  0.6934407287E-35 -0.2142864161E-35 -0.1405353549E-34  0.0000000000E+00  0.0000000000E+00  0.0000000000E+00 -0.2008405061E-35 -0.1375970380E-34 -0.2275952708E-37  0.0000000000E+00  0.0000000000E+00  0.0000000000E+00
49  0.6380967750E-41 -0.2611783194E-41  0.6963744542E-41 -0.9426906993E-43  0.9666434215E-41 -0.2803978582E-37 -0.2019646548E-35  0.6876012597E-35 -0.2128851451E-35 -0.1377008629E-34  0.0000000000E+00 -0.2019646548E-35 -0.1362051307E-34 -0.2803978582E-37 -0.2803978582E-37 -0.2019646548E-35  0.0000000000E+00  0.0000000000E+00  0.6876012597E-35 -0.2128851451E-35 -0.1377008629E-34  0.0000000000E+00  0.0000000000E+00  0.0000000000E+00 -0.2019646548E-35 -0.1362051307E-34 -0.2803978582E-37  0.0000000000E+00  0.0000000000E+00  0.0000000000E+00
50  0.5970260026E-41 -0.3203685741E-41  0.6440371043E-41 -0.2872468529E-42  0.9372713683E-41 -0.2700666975E-37 -0.2069059493E-35  0.6807232529E-35 -0.2164730146E-35 -0.1379404602E-34  0.0000000000E+00 -0.2069059493E-35 -0.1347038966E-34 -0.2700666975E-37 -0.2700666975E-37 -0.2069059493E-35  0.0000000000E+00  0.0000000000E+00  0.6807232529E-35 -0.2164730146E-35 -0.1379404602E-34  0.0000000000E+00  0.0000000000E+00  0.0000000000E+00 -0.2069059493E-35 -0.1347038966E-34 -0.2700666975E-37  0.0000000000E+00  0.0000000000E+00  0.0000000000E+00
51  0.5254948119E-41 -0.2451417830E-41  0.5846543720E-41 -0.3230580836E-42  0.8867458526E-41 -0.2306498463E-37 -0.2122026994E-35  0.6772104700E-35 -0.2214997299E-35 -0.1407703007E-34  0.0000000000E+00 -0.2122026994E-35 -0.1339885262E-34 -0.2306498463E-37 -0.2306498463E-37 -0.2122026994E-35  0.0000000000E+00  0.0000000000E+00  0.6772104700E-35 -0.2214997299E-35 -0.1407703007E-34  0.0000000000E+00  0.0000000000E+00  0.0000000000E+00 -0.2122026994E-35 -0.1339885262E-34 -0.2306498463E-37  0.0000000000E+00  0.0000000000E+00  0.0000000000E+00
52  0.4730267707E-41 -0.1310486616E-41  0.5203385068E-41 -0.2904134433E-42  0.8553594231E-41 -0.2141658471E-37 -0.2149090718E-35  0.6790745453E-35 -0.2240863102E-35 -0.1444081719E-34  0.0000000000E+00 -0.2149090718E-35 -0.1343872117E-34 -0.2141658471E-37 -0.2141658471E-37 -0.2149090718E-35  0.0000000000E+00  0.0000000000E+00  0.6790745453E-35 -0.2240863102E-35 -0.1444081719E-34  0.0000000000E+00  0.0000000000E+00  0.0000000000E+00 -0.2149090718E-35 -0.1343872117E-34 -0.2141658471E-37  0.0000000000E+00  0.0000000000E+00  0.0000000000E+00
53  0.4331487679E-41 -0.8337854211E-42  0.5046924813E-41 -0.3550025141E-42  0.7968685680E-41 -0.2453384144E-37 -0.2141281912E-35  0.6851034932E-35 -0.2227344967E-35 -0.1469901588E-34  0.0000000000E+00 -0.2141281912E-35 -0.1355931448E-34 -0.2453384144E-37 -0.2453384144E-37 -0.2141281912E-35  0.0000000000E+00  0.0000000000E+00  0.6851034932E-35 -0.2227344967E-35 -0.1469901588E-34  0.0000000000E+00  0.0000000000E+00  0.0000000000E+00 -0.2141281912E-35 -0.1355931448E-34 -0.2453384144E-37  0.0000000000E+00  0.0000000000E+00  0.0000000000E+00
54  0.3492563643E-41 -0.1352270544E-41  0.4671720043E-41 -0.4608054672E-42  0.6096077564E-41 -0.3066947512E-37 -0.2110913198E-35  0.6919720108E-35 -0.2188628565E-35 -0.1475738105E-34  0.0000000000E+00 -0.2110913198E-35 -0.1369315682E-34 -0.3066947512E-37 -0.3066947512E-37 -0.2110913198E-35  0.0000000000E+00  0.0000000000E+00  0.6919720108E-35 -0.2188628565E-35 -0.1475738105E-34  0.0000000000E+00  0.0000000000E+00  0.0000000000E+00 -0.2110913198E-35 -0.1369315682E-34 -0.3066947512E-37  0.0000000000E+00  0.0000000000E+00  0.0000000000E+00