TITLE="fun3d_case_title"
VARIABLES="Iteration" "R_1" "R_2" "R_3" "R_4" "R_5" "C_L" "C_D" "C_M_x" "C_M_y" "C_M_z" "Wall Time" "C_x" "C_y" "C_z" "C_Lp" "C_Dp" "C_Lv" "C_Dv" "C_M_xp" "C_M_yp" "C_M_zp" "C_M_xv" "C_M_yv" "C_M_zv" "C_xp" "C_yp" "C_zp" "C_xv" "C_yv" "C_zv"
ZONE  I=100 F=POINT
1 -0.7545836252E-34  0.3619380194E-33 -0.4163264764E-35 -0.1928674230E-33  0.3931083340E-33  0.2176082329E-29 -0.8416620478E-31  0.8904060974E-31 -0.5474728509E-29 -0.1200501975E-35  0.0000000000E+00  0.3135371510E-34  0.2516283101E-37  0.2176154201E-29  0.2176120720E-29 -0.8420100744E-31 -0.3839084464E-34  0.3480266034E-34  0.8904343952E-31 -0.5474656589E-29  0.6024929668E-46 -0.2829778112E-35 -0.7192048828E-34 -0.1200501975E-35  0.3390478983E-47  0.2780345831E-46  0.2176120720E-29  0.3135371510E-34  0.2516283098E-37  0.3348119379E-34
2 -0.3978352236E-33  0.7193131345E-34 -0.5418045838E-35 -0.1733941158E-33  0.2480301199E-33  0.1816615549E-29 -0.5434443268E-31  0.7223653250E-31 -0.4233098481E-29 -0.2995648933E-35  0.0000000000E+00  0.1345528698E-34 -0.4571003884E-36  0.1816684321E-29  0.1816682203E-29 -0.5436246289E-31 -0.6665380609E-34  0.1803020681E-34  0.7223984980E-31 -0.4233118498E-29  0.5526280798E-37 -0.3317298984E-35  0.2001757574E-34 -0.3050911741E-35  0.2225299824E-37  0.2378923839E-37  0.1816682222E-29  0.1343303398E-34 -0.4808896268E-36  0.2099421453E-35
3 -0.3942392466E-33 -0.6026639994E-35  0.3788904746E-34  0.8527055525E-34 -0.6140315326E-34  0.1516889529E-29 -0.2658788693E-31  0.9060439276E-32 -0.3007304199E-29  0.1357674518E-35  0.0000000000E+00  0.7979435082E-36  0.9469846358E-36  0.1516959144E-29  0.1516957242E-29 -0.2659670652E-31 -0.6771317341E-34  0.8819588827E-35  0.9063443504E-32 -0.3007332439E-29  0.4492690400E-35 -0.3004228629E-35  0.2823958397E-34 -0.3135015882E-35 -0.2947841628E-35  0.1571616839E-35  0.1516959579E-29  0.3745785136E-35 -0.6246322032E-36 -0.4346153186E-36
4 -0.1686470399E-33 -0.3810152190E-34 -0.3267235324E-34 -0.2299371770E-34 -0.1484533767E-33  0.1420563724E-29 -0.4151894972E-32 -0.2586201597E-31 -0.2536243963E-29  0.3126409518E-35  0.0000000000E+00 -0.5339935858E-35  0.7338188554E-36  0.1420632346E-29  0.1420626895E-29 -0.4157095373E-32 -0.6317115010E-34  0.5200401181E-35 -0.2585967099E-31 -0.2536257975E-29  0.4978463423E-35 -0.2344977184E-35  0.1401151859E-34 -0.1852053905E-35 -0.5357699249E-35  0.1271108219E-35  0.1420629297E-29  0.1776339027E-37 -0.5372893632E-36  0.3048571151E-35
5 -0.5287280440E-34 -0.1745452372E-34 -0.2810673894E-34 -0.9243698558E-34 -0.1197853546E-33  0.1419118709E-29  0.1175960798E-31 -0.3086351702E-31 -0.2524175627E-29  0.4687917179E-35  0.0000000000E+00 -0.7389864592E-35  0.9120196887E-36  0.1419186397E-29  0.1419178952E-29  0.1175621344E-31 -0.6024273551E-34  0.3394539949E-35 -0.3086167474E-31 -0.2524179593E-29  0.5244226424E-35 -0.1842280480E-35  0.3965533131E-35 -0.5563092448E-36 -0.5672852740E-35  0.1225852898E-35  0.1419181243E-29 -0.1717011852E-35 -0.3138332095E-36  0.5154197222E-35
6 -0.2606672861E-34  0.6302234153E-35 -0.2326671642E-34 -0.7528214836E-34 -0.3779710641E-34  0.1428976506E-29  0.2123409687E-31 -0.2500078195E-31 -0.2628899567E-29  0.5508595813E-35  0.0000000000E+00 -0.8241655048E-35  0.1143232387E-35  0.1429043452E-29  0.1429035654E-29  0.2123216709E-31 -0.5914778952E-34  0.1929780391E-35 -0.2499926093E-31 -0.2628900495E-29  0.5199610543E-35 -0.1521022307E-35  0.9276363466E-36  0.3089852699E-36 -0.5189337870E-35  0.1284940507E-35  0.1429037834E-29 -0.3052317177E-35 -0.1417081197E-36  0.5617472670E-35
7 -0.2859537268E-34  0.4593502373E-35 -0.2031740256E-34 -0.2987585901E-34 -0.7095321848E-35  0.1419902951E-29  0.2702455348E-31 -0.1641450409E-31 -0.2679951408E-29  0.6005709087E-35  0.0000000000E+00 -0.9118074630E-35  0.1397853375E-35  0.1419969415E-29  0.1419961847E-29  0.2702407107E-31 -0.5889551776E-34  0.4824083491E-36 -0.1641324471E-31 -0.2679953018E-29  0.5196450975E-35 -0.1259371078E-35  0.1610447574E-35  0.8092581126E-36 -0.4709009232E-35  0.1396554038E-35  0.1419963969E-29 -0.4409065398E-35  0.1299337019E-38  0.5446027013E-35
8 -0.1761682967E-34 -0.2722444503E-35 -0.1433966788E-34 -0.7797237284E-35 -0.8468739281E-35  0.1418352411E-29  0.2915627538E-31 -0.9923182249E-32 -0.2714592571E-29  0.6259841488E-35  0.0000000000E+00 -0.9669368703E-35  0.1592263446E-35  0.1418418563E-29  0.1418411035E-29  0.2915664988E-31 -0.5862444366E-34 -0.3744951923E-36 -0.9922071610E-32 -0.2714595130E-29  0.5241300786E-35 -0.1110638941E-35  0.2559011417E-35  0.1018540702E-35 -0.4460242215E-35  0.1508201344E-35  0.1418413141E-29 -0.5209126488E-35  0.8406210122E-37  0.5421757227E-35
9 -0.5712556620E-35 -0.4839068815E-35 -0.8654880942E-35 -0.2150895594E-35 -0.9739274710E-35  0.1419146030E-29  0.2955990923E-31 -0.5986573240E-32 -0.2727647314E-29  0.6445471786E-35  0.0000000000E+00 -0.1008365428E-34  0.1723541139E-35  0.1419211977E-29  0.1419204427E-29  0.2956079858E-31 -0.5839663770E-34 -0.8893532921E-36 -0.5985546021E-32 -0.2727650527E-29  0.5262195330E-35 -0.1027218719E-35  0.3213247184E-35  0.1183276457E-35 -0.4386956751E-35  0.1567016297E-35  0.1419206536E-29 -0.5696697530E-35  0.1565248418E-36  0.5440481620E-35
10 -0.1502263182E-35 -0.3562985920E-35 -0.4731615676E-35 -0.7379142731E-36 -0.7155819432E-35  0.1412954185E-29  0.3140167208E-31 -0.5671166501E-32 -0.2710198425E-29  0.6469904518E-35  0.0000000000E+00 -0.1060901887E-34  0.1737778796E-35  0.1413020052E-29  0.1413012551E-29  0.3140305976E-31 -0.5836559507E-34 -0.1387676822E-35 -0.5670139498E-32 -0.2710202162E-29  0.5229469821E-35 -0.1027002588E-35  0.3737012593E-35  0.1240434697E-35 -0.4404041239E-35  0.1570286842E-35  0.1413014670E-29 -0.6204977632E-35  0.1674919533E-36  0.5381913236E-35
11 -0.1235400898E-35 -0.2318650201E-35 -0.2280255744E-35 -0.5779374789E-36 -0.5408543303E-35  0.1414691864E-29  0.3148008706E-31 -0.5249402776E-32 -0.2712312531E-29  0.6578256883E-35  0.0000000000E+00 -0.1080449214E-34  0.1767441651E-35  0.1414757640E-29  0.1414750105E-29  0.3148164947E-31 -0.5824112085E-34 -0.1562415499E-35 -0.5248420216E-32 -0.2712316295E-29  0.5208022696E-35 -0.9825599641E-36  0.3764201704E-35  0.1370234187E-35 -0.4436388407E-35  0.1559972627E-35  0.1414752230E-29 -0.6368103729E-35  0.2074690243E-36  0.5409991419E-35
12 -0.6781508281E-36 -0.1237728697E-35 -0.1251438983E-35 -0.4497246421E-36 -0.2562612696E-35  0.1410819280E-29  0.3260310315E-31 -0.6296757096E-32 -0.2700611370E-29  0.6583329811E-35  0.0000000000E+00 -0.1106085388E-34  0.1742484956E-35  0.1410885026E-29  0.1410877524E-29  0.3260489507E-31 -0.5824442995E-34 -0.1791918653E-35 -0.6295776001E-32 -0.2700615257E-29  0.5177819673E-35 -0.9810951029E-36  0.3887136115E-35  0.1405510138E-35 -0.4458975387E-35  0.1543845320E-35  0.1410879654E-29 -0.6601878496E-35  0.1986396352E-36  0.5372619138E-35
13 -0.6210176003E-36 -0.8395597279E-36 -0.7697635103E-36 -0.4566985884E-36 -0.1802262807E-35  0.1412436729E-29  0.3270969759E-31 -0.6553300420E-32 -0.2705429487E-29  0.6594668130E-35  0.0000000000E+00 -0.1106601674E-34  0.1732389607E-35  0.1412502433E-29  0.1412494897E-29  0.3271150011E-31 -0.5816808184E-34 -0.1802521942E-35 -0.6552337697E-32 -0.2705433259E-29  0.5170458142E-35 -0.9627226206E-36  0.3771339066E-35  0.1424209988E-35 -0.4461876661E-35  0.1539304326E-35  0.1412497028E-29 -0.6604140082E-35  0.1930852802E-36  0.5405289992E-35
14 -0.2285712779E-36 -0.5343302750E-36 -0.6106991310E-36 -0.5345597285E-36 -0.1259160424E-35  0.1412840588E-29  0.3293981543E-31 -0.6552660530E-32 -0.2707211476E-29  0.6595909418E-35  0.0000000000E+00 -0.1108151695E-34  0.1714799948E-35  0.1412906270E-29  0.1412898720E-29  0.3294162427E-31 -0.5813232882E-34 -0.1808838616E-35 -0.6551708803E-32 -0.2707215197E-29  0.5162233891E-35 -0.9517267691E-36  0.3721720779E-35  0.1433675528E-35 -0.4474049161E-35  0.1528086113E-35  0.1412900852E-29 -0.6607467793E-35  0.1867138348E-36  0.5417945952E-35
15 -0.1650683483E-36 -0.3806208173E-36 -0.4790500443E-36 -0.2915679396E-36 -0.8922196386E-36  0.1413012136E-29  0.3305193130E-31 -0.6478490031E-32 -0.2708281162E-29  0.6590360314E-35  0.0000000000E+00 -0.1108197884E-34  0.1705856831E-35  0.1413077805E-29  0.1413070251E-29  0.3305374104E-31 -0.5811430533E-34 -0.1809732867E-35 -0.6477542505E-32 -0.2708284871E-29  0.5160630160E-35 -0.9475257652E-36  0.3708838508E-35  0.1429730154E-35 -0.4475607059E-35  0.1527208966E-35  0.1413072383E-29 -0.6606371785E-35  0.1786478654E-36  0.5422079937E-35
16 -0.1114257894E-36 -0.2857320869E-36 -0.3724484183E-36 -0.1806106743E-36 -0.7050238994E-36  0.1413251582E-29  0.3310558677E-31 -0.6401117577E-32 -0.2709217993E-29  0.6578968914E-35  0.0000000000E+00 -0.1107324819E-34  0.1698138218E-35  0.1413317243E-29  0.1413309687E-29  0.3310738815E-31 -0.5810430738E-34 -0.1801380004E-35 -0.6400170721E-32 -0.2709221701E-29  0.5160335193E-35 -0.9468555174E-36  0.3707312774E-35  0.1418633721E-35 -0.4476171319E-35  0.1527310899E-35  0.1413311819E-29 -0.6597076870E-35  0.1708273188E-36  0.5423935759E-35
17 -0.8306989196E-37 -0.2091340566E-36 -0.2770555557E-36 -0.1330715964E-36 -0.4753343569E-36  0.1413508639E-29  0.3313560184E-31 -0.6338593660E-32 -0.2709946198E-29  0.6567981956E-35  0.0000000000E+00 -0.1106273178E-34  0.1692510921E-35  0.1413574295E-29  0.1413566738E-29  0.3313739271E-31 -0.5809896269E-34 -0.1790875750E-35 -0.6337646713E-32 -0.2709949908E-29  0.5160048821E-35 -0.9469468274E-36  0.3709517189E-35  0.1407933135E-35 -0.4476609501E-35  0.1527388152E-35  0.1413568871E-29 -0.6586122282E-35  0.1651227695E-36  0.5424739524E-35
18 -0.5282741506E-37 -0.1469092478E-36 -0.1974644841E-36 -0.1035646164E-36 -0.3164747915E-36  0.1413789986E-29  0.3315078547E-31 -0.6303296577E-32 -0.2710593854E-29  0.6560369706E-35  0.0000000000E+00 -0.1105428939E-34  0.1688970941E-35  0.1413855640E-29  0.1413848082E-29  0.3315256775E-31 -0.5809600798E-34 -0.1782277363E-35 -0.6302349748E-32 -0.2710597566E-29  0.5159646457E-35 -0.9468287915E-36  0.3712313940E-35  0.1400723249E-35 -0.4477088394E-35  0.1527330805E-35  0.1413850215E-29 -0.6577200991E-35  0.1616401362E-36  0.5425354363E-35
19 -0.3625978801E-37 -0.9976313629E-37 -0.1350413729E-36 -0.7632752707E-37 -0.1874261322E-36  0.1414043791E-29  0.3315636507E-31 -0.6283192824E-32 -0.2711120791E-29  0.6556387108E-35  0.0000000000E+00 -0.1105034457E-34  0.1687033699E-35  0.1414109444E-29  0.1414101886E-29  0.3315814322E-31 -0.5809485787E-34 -0.1778149246E-35 -0.6282246659E-32 -0.2711124508E-29  0.5159177600E-35 -0.9461652295E-36  0.3716891768E-35  0.1397209509E-35 -0.4477529265E-35  0.1527137311E-35  0.1414104019E-29 -0.6572815301E-35  0.1598963878E-36  0.5425430461E-35
20 -0.2678985334E-37 -0.6984308703E-37 -0.8859566893E-37 -0.5956968335E-37 -0.1167422863E-36  0.1414267204E-29  0.3315585198E-31 -0.6275669389E-32 -0.2711589834E-29  0.6554560715E-35  0.0000000000E+00 -0.1104965492E-34  0.1685972880E-35  0.1414332856E-29  0.1414325298E-29  0.3315762943E-31 -0.5809447605E-34 -0.1777447744E-35 -0.6274724006E-32 -0.2711593556E-29  0.5158786552E-35 -0.9453830122E-36  0.3721431617E-35  0.1395774163E-35 -0.4477764623E-35  0.1526957935E-35  0.1414327431E-29 -0.6571890296E-35  0.1590149455E-36  0.5425370469E-35
21 -0.1756319975E-37 -0.4999095980E-37 -0.5525172899E-37 -0.5462042344E-37 -0.7738902502E-37  0.1414457935E-29  0.3315182065E-31 -0.6275424242E-32 -0.2712022604E-29  0.6553415716E-35  0.0000000000E+00 -0.1105022812E-34  0.1685204020E-35  0.1414523588E-29  0.1414516029E-29  0.3315359887E-31 -0.5809422916E-34 -0.1778224996E-35 -0.6274479462E-32 -0.2712026328E-29  0.5158497131E-35 -0.9447796538E-36  0.3724647122E-35  0.1394918584E-35 -0.4477754065E-35  0.1526805673E-35  0.1414518162E-29 -0.6572474052E-35  0.1583983475E-36  0.5425424585E-35
22 -0.1059027479E-37 -0.3530534951E-37 -0.3284927628E-37 -0.5079406045E-37 -0.5299613908E-37  0.1414615457E-29  0.3314640778E-31 -0.6278462498E-32 -0.2712413140E-29  0.6552165630E-35  0.0000000000E+00 -0.1105078361E-34  0.1684472993E-35  0.1414681109E-29  0.1414673551E-29  0.3314818691E-31 -0.5809385375E-34 -0.1779128694E-35 -0.6277518061E-32 -0.2712416866E-29  0.5158311858E-35 -0.9444366606E-36  0.3726211841E-35  0.1393853772E-35 -0.4477564172E-35  0.1526692242E-35  0.1414675684E-29 -0.6573219437E-35  0.1577807503E-36  0.5425684003E-35
23 -0.6548955543E-38 -0.2425399349E-37 -0.1914690198E-37 -0.4169499754E-37 -0.3511082252E-37  0.1414741187E-29  0.3314110335E-31 -0.6282095909E-32 -0.2712747534E-29  0.6550599192E-35  0.0000000000E+00 -0.1105090284E-34  0.1683735119E-35  0.1414806839E-29  0.1414799280E-29  0.3314288297E-31 -0.5809339254E-34 -0.1779625234E-35 -0.6281151615E-32 -0.2712751261E-29  0.5158228352E-35 -0.9442936572E-36  0.3726653198E-35  0.1392370840E-35 -0.4477304072E-35  0.1526621210E-35  0.1414801413E-29 -0.6573598764E-35  0.1571139083E-36  0.5426052093E-35
24 -0.4610778531E-38 -0.1674884790E-37 -0.1134694415E-37 -0.2976975751E-37 -0.2302643742E-37  0.1414836770E-29  0.3313677353E-31 -0.6284874881E-32 -0.2713012464E-29  0.6548844648E-35  0.0000000000E+00 -0.1105068788E-34  0.1683040970E-35  0.1414902422E-29  0.1414894863E-29  0.3313855325E-31 -0.5809297736E-34 -0.1779724760E-35 -0.6283930628E-32 -0.2713016191E-29  0.5158237599E-35 -0.9442535362E-36  0.3726648732E-35  0.1390607049E-35 -0.4477068180E-35  0.1526591535E-35  0.1414896996E-29 -0.6573619699E-35  0.1564494350E-36  0.5426392088E-35
25 -0.3291935078E-38 -0.1187358905E-37 -0.6892994703E-38 -0.1942148153E-37 -0.1533250440E-37  0.1414905007E-29  0.3313367965E-31 -0.6286255388E-32 -0.2713204140E-29  0.6547135814E-35  0.0000000000E+00 -0.1105037188E-34  0.1682454202E-35  0.1414970659E-29  0.1414963099E-29  0.3313545928E-31 -0.5809268740E-34 -0.1779620860E-35 -0.6285311146E-32 -0.2713207867E-29  0.5158313482E-35 -0.9442421941E-36  0.3726610112E-35  0.1388822332E-35 -0.4476904971E-35  0.1526594976E-35  0.1414965232E-29 -0.6573466911E-35  0.1558592265E-36  0.5426627922E-35
26 -0.2282442598E-38 -0.8617955335E-38 -0.4199180853E-38 -0.1236019945E-37 -0.1069049144E-37  0.1414950428E-29  0.3313167367E-31 -0.6286395394E-32 -0.2713330384E-29  0.6545672975E-35  0.0000000000E+00 -0.1105011308E-34  0.1682012415E-35  0.1415016080E-29  0.1415008520E-29  0.3313345315E-31 -0.5809252209E-34 -0.1779478997E-35 -0.6285451171E-32 -0.2713334110E-29  0.5158419995E-35 -0.9442227160E-36  0.3726644340E-35  0.1387252980E-35 -0.4476818000E-35  0.1526618787E-35  0.1415010653E-29 -0.6573295081E-35  0.1553936274E-36  0.5426758537E-35
27 -0.1516667658E-38 -0.6213458260E-38 -0.2519944432E-38 -0.8075098451E-38 -0.7667270652E-38  0.1414978747E-29  0.3313043223E-31 -0.6285784433E-32 -0.2713406744E-29  0.6544559719E-35  0.0000000000E+00 -0.1104995433E-34  0.1681717606E-35  0.1415044399E-29  0.1415036839E-29  0.3313221160E-31 -0.5809243800E-34 -0.1779372414E-35 -0.6284840247E-32 -0.2713410471E-29  0.5158523984E-35 -0.9441859476E-36  0.3726702920E-35  0.1386035735E-35 -0.4476785363E-35  0.1526649472E-35  0.1415038972E-29 -0.6573168964E-35  0.1550681336E-36  0.5426821387E-35
28 -0.1000716857E-38 -0.4369640004E-38 -0.1523164036E-38 -0.5456371886E-38 -0.5535877446E-38  0.1414995602E-29  0.3312964518E-31 -0.6284921981E-32 -0.2713450234E-29  0.6543804387E-35  0.0000000000E+00 -0.1104986838E-34  0.1681545948E-35  0.1415061255E-29  0.1415053695E-29  0.3313142449E-31 -0.5809238976E-34 -0.1779305430E-35 -0.6283977845E-32 -0.2713453961E-29  0.5158605374E-35 -0.9441366950E-36  0.3726719778E-35  0.1385199013E-35 -0.4476780479E-35  0.1526677137E-35  0.1415055828E-29 -0.6573087897E-35  0.1548688113E-36  0.5426855639E-35
29 -0.6557041203E-39 -0.2995025748E-38 -0.9675803742E-39 -0.3692116204E-38 -0.3951376081E-38  0.1415005546E-29  0.3312909962E-31 -0.6284137707E-32 -0.2713474757E-29  0.6543350741E-35  0.0000000000E+00 -0.1104981253E-34  0.1681462440E-35  0.1415071198E-29  0.1415063638E-29  0.3313087887E-31 -0.5809235039E-34 -0.1779256740E-35 -0.6283193623E-32 -0.2713478484E-29  0.5158658487E-35 -0.9440838561E-36  0.3726672427E-35  0.1384692254E-35 -0.4476784122E-35  0.1526697070E-35  0.1415065771E-29 -0.6573028409E-35  0.1547653702E-36  0.5426884330E-35
30 -0.4315253429E-39 -0.2027927073E-38 -0.6389180926E-39 -0.2411823546E-38 -0.2782012060E-38  0.1415011643E-29  0.3312868442E-31 -0.6283572915E-32 -0.2713489398E-29  0.6543115255E-35  0.0000000000E+00 -0.1104975989E-34  0.1681432934E-35  0.1415077295E-29  0.1415069736E-29  0.3313046363E-31 -0.5809231187E-34 -0.1779209385E-35 -0.6282628880E-32 -0.2713493124E-29  0.5158687565E-35 -0.9440352921E-36  0.3726580117E-35  0.1384427690E-35 -0.4476787031E-35  0.1526708900E-35  0.1415071868E-29 -0.6572972854E-35  0.1547240341E-36  0.5426913988E-35
31 -0.2903332637E-39 -0.1376113149E-38 -0.4018615243E-39 -0.1503984027E-38 -0.1942514286E-38  0.1415015660E-29  0.3312835639E-31 -0.6283238011E-32 -0.2713499047E-29  0.6543016055E-35  0.0000000000E+00 -0.1104970386E-34  0.1681430767E-35  0.1415081312E-29  0.1415073752E-29  0.3313013555E-31 -0.5809227648E-34 -0.1779159157E-35 -0.6282294015E-32 -0.2713502774E-29  0.5158700743E-35 -0.9439958227E-36  0.3726476979E-35  0.1384315312E-35 -0.4476787111E-35  0.1526714576E-35  0.1415075885E-29 -0.6572916753E-35  0.1547161908E-36  0.5426942310E-35
32 -0.2014421511E-39 -0.9427623649E-39 -0.2192559782E-39 -0.9070459359E-39 -0.1353008170E-38  0.1415018452E-29  0.3312810249E-31 -0.6283086267E-32 -0.2713505836E-29  0.6542988343E-35  0.0000000000E+00 -0.1104965049E-34  0.1681438384E-35  0.1415084104E-29  0.1415076545E-29  0.3312988160E-31 -0.5809224868E-34 -0.1779111308E-35 -0.6282142300E-32 -0.2713509562E-29  0.5158705566E-35 -0.9439672643E-36  0.3726390704E-35  0.1384282778E-35 -0.4476785478E-35  0.1526716525E-35  0.1415078678E-29 -0.6572865015E-35  0.1547218593E-36  0.5426965055E-35
33 -0.1406076727E-39 -0.6511667852E-39 -0.9935138942E-40 -0.5342255932E-39 -0.9344929290E-39  0.1415020404E-29  0.3312791631E-31 -0.6283057980E-32 -0.2713510588E-29  0.6542989253E-35  0.0000000000E+00 -0.1104960759E-34  0.1681446301E-35  0.1415086056E-29  0.1415078496E-29  0.3312969538E-31 -0.5809223053E-34 -0.1779072602E-35 -0.6282114031E-32 -0.2713514315E-29  0.5158707140E-35 -0.9439490373E-36  0.3726333081E-35  0.1384282113E-35 -0.4476783667E-35  0.1526716673E-35  0.1415080629E-29 -0.6572823923E-35  0.1547296276E-36  0.5426980137E-35
34 -0.9639245317E-40 -0.4507805392E-39 -0.3974095381E-40 -0.3040908443E-39 -0.6282032084E-39  0.1415021709E-29  0.3312778839E-31 -0.6283101479E-32 -0.2713513711E-29  0.6542995423E-35  0.0000000000E+00 -0.1104957900E-34  0.1681450807E-35  0.1415087361E-29  0.1415079802E-29  0.3312956743E-31 -0.5809222105E-34 -0.1779046558E-35 -0.6282157540E-32 -0.2713517437E-29  0.5158708039E-35 -0.9439391353E-36  0.3726302394E-35  0.1384287384E-35 -0.4476782504E-35  0.1526716185E-35  0.1415081935E-29 -0.6572796493E-35  0.1547346216E-36  0.5426988145E-35
35 -0.6493462753E-40 -0.3117863888E-39 -0.1923380787E-40 -0.1664096674E-39 -0.4052464339E-39  0.1415022516E-29  0.3312770590E-31 -0.6283178501E-32 -0.2713515564E-29  0.6542997390E-35  0.0000000000E+00 -0.1104956375E-34  0.1681451569E-35  0.1415088168E-29  0.1415080608E-29  0.3312948494E-31 -0.5809221761E-34 -0.1779032547E-35 -0.6282234566E-32 -0.2713519291E-29  0.5158709101E-35 -0.9439350499E-36  0.3726290351E-35  0.1384288290E-35 -0.4476782070E-35  0.1526715603E-35  0.1415082741E-29 -0.6572781684E-35  0.1547359659E-36  0.5426991172E-35
36 -0.4321006331E-40 -0.2152058822E-39 -0.1534916979E-40 -0.9000611940E-40 -0.2506515809E-39  0.1415022960E-29  0.3312765564E-31 -0.6283263407E-32 -0.2713516522E-29  0.6542993720E-35  0.0000000000E+00 -0.1104955808E-34  0.1681449738E-35  0.1415088612E-29  0.1415081052E-29  0.3312943467E-31 -0.5809221743E-34 -0.1779027336E-35 -0.6282319472E-32 -0.2713520249E-29  0.5158710318E-35 -0.9439344460E-36  0.3726288148E-35  0.1384283403E-35 -0.4476782087E-35  0.1526715106E-35  0.1415083185E-29 -0.6572775995E-35  0.1547346321E-36  0.5426991487E-35
37 -0.2791308812E-40 -0.1476610548E-39 -0.1525881341E-40 -0.5023138418E-40 -0.1495201472E-39  0.1415023165E-29  0.3312762649E-31 -0.6283340870E-32 -0.2713516921E-29  0.6542986431E-35  0.0000000000E+00 -0.1104955775E-34  0.1681446739E-35  0.1415088817E-29  0.1415081257E-29  0.3312940552E-31 -0.5809221849E-34 -0.1779027143E-35 -0.6282396934E-32 -0.2713520647E-29  0.5158711459E-35 -0.9439355257E-36  0.3726289592E-35  0.1384274972E-35 -0.4476782259E-35  0.1526714717E-35  0.1415083390E-29 -0.6572775495E-35  0.1547320213E-36  0.5426990747E-35
38 -0.1698821338E-40 -0.9975296414E-40 -0.1466675259E-40 -0.2938093779E-40 -0.8603315174E-40  0.1415023229E-29  0.3312761040E-31 -0.6283403516E-32 -0.2713517010E-29  0.6542978161E-35  0.0000000000E+00 -0.1104955957E-34  0.1681443671E-35  0.1415088881E-29  0.1415081321E-29  0.3312938943E-31 -0.5809221974E-34 -0.1779029005E-35 -0.6282459579E-32 -0.2713520736E-29  0.5158712360E-35 -0.9439371202E-36  0.3726291558E-35  0.1384265801E-35 -0.4476782420E-35  0.1526714417E-35  0.1415083454E-29 -0.6572777153E-35  0.1547292533E-36  0.5426989840E-35
39 -0.9613723003E-41 -0.6573942079E-40 -0.1309443939E-40 -0.1785138820E-40 -0.4769427688E-40  0.1415023219E-29  0.3312760211E-31 -0.6283449616E-32 -0.2713516947E-29  0.6542970847E-35  0.0000000000E+00 -0.1104956175E-34  0.1681441149E-35  0.1415088871E-29  0.1415081311E-29  0.3312938114E-31 -0.5809222079E-34 -0.1779031210E-35 -0.6282505677E-32 -0.2713520673E-29  0.5158712979E-35 -0.9439386042E-36  0.3726293070E-35  0.1384257868E-35 -0.4476782530E-35  0.1526714187E-35  0.1415083444E-29 -0.6572779223E-35  0.1547269621E-36  0.5426989077E-35
40 -0.5184941083E-41 -0.4211421204E-40 -0.1091454772E-40 -0.1140794119E-40 -0.2586729546E-40  0.1415023176E-29  0.3312759838E-31 -0.6283480885E-32 -0.2713516820E-29  0.6542965421E-35  0.0000000000E+00 -0.1104956361E-34  0.1681439378E-35  0.1415088828E-29  0.1415081268E-29  0.3312937742E-31 -0.5809222162E-34 -0.1779033068E-35 -0.6282536945E-32 -0.2713520547E-29  0.5158713358E-35 -0.9439397333E-36  0.3726294150E-35  0.1384252064E-35 -0.4476782610E-35  0.1526714014E-35  0.1415083401E-29 -0.6572780997E-35  0.1547253635E-36  0.5426988484E-35
41 -0.2817444615E-41 -0.2627527955E-40 -0.8486129829E-41 -0.7883270765E-41 -0.1426163316E-40  0.1415023121E-29  0.3312759724E-31 -0.6283500597E-32 -0.2713516673E-29  0.6542962013E-35  0.0000000000E+00 -0.1104956505E-34  0.1681438302E-35  0.1415088774E-29  0.1415081214E-29  0.3312937627E-31 -0.5809222228E-34 -0.1779034479E-35 -0.6282556657E-32 -0.2713520400E-29  0.5158713568E-35 -0.9439404816E-36  0.3726295037E-35  0.1384248445E-35 -0.4476782689E-35  0.1526713888E-35  0.1415083347E-29 -0.6572782362E-35  0.1547244145E-36  0.5426988006E-35
42 -0.1621653751E-41 -0.1601192933E-40 -0.6118187274E-41 -0.5759861564E-41 -0.8254645323E-41  0.1415023068E-29  0.3312759743E-31 -0.6283512221E-32 -0.2713516528E-29  0.6542960295E-35  0.0000000000E+00 -0.1104956619E-34  0.1681437758E-35  0.1415088720E-29  0.1415081160E-29  0.3312937647E-31 -0.5809222283E-34 -0.1779035554E-35 -0.6282568280E-32 -0.2713520255E-29  0.5158713672E-35 -0.9439409187E-36  0.3726295863E-35  0.1384246624E-35 -0.4476782776E-35  0.1526713798E-35  0.1415083293E-29 -0.6572783414E-35  0.1547239603E-36  0.5426987602E-35
43 -0.9989961610E-42 -0.9568769235E-41 -0.4077074396E-41 -0.4131695801E-41 -0.4973067525E-41  0.1415023020E-29  0.3312759821E-31 -0.6283518655E-32 -0.2713516398E-29  0.6542959781E-35  0.0000000000E+00 -0.1104956713E-34  0.1681437564E-35  0.1415088672E-29  0.1415081112E-29  0.3312937724E-31 -0.5809222329E-34 -0.1779036412E-35 -0.6282574714E-32 -0.2713520124E-29  0.5158713710E-35 -0.9439411366E-36  0.3726296626E-35  0.1384246071E-35 -0.4476782865E-35  0.1526713733E-35  0.1415083245E-29 -0.6572784260E-35  0.1547238310E-36  0.5426987264E-35
44 -0.6474254741E-42 -0.5660607543E-41 -0.2520192354E-41 -0.2732862368E-41 -0.3011198439E-41  0.1415022980E-29  0.3312759911E-31 -0.6283521980E-32 -0.2713516290E-29  0.6542960008E-35  0.0000000000E+00 -0.1104956790E-34  0.1681437572E-35  0.1415088633E-29  0.1415081073E-29  0.3312937815E-31 -0.5809222365E-34 -0.1779037115E-35 -0.6282578038E-32 -0.2713520016E-29  0.5158713708E-35 -0.9439412149E-36  0.3726297273E-35  0.1384246301E-35 -0.4476782944E-35  0.1526713685E-35  0.1415083206E-29 -0.6572784959E-35  0.1547238867E-36  0.5426986996E-35
45 -0.4306703398E-42 -0.3374223613E-41 -0.1462043082E-41 -0.1632921309E-41 -0.1791215980E-41  0.1415022950E-29  0.3312759992E-31 -0.6283523522E-32 -0.2713516206E-29  0.6542960617E-35  0.0000000000E+00 -0.1104956853E-34  0.1681437677E-35  0.1415088602E-29  0.1415081042E-29  0.3312937896E-31 -0.5809222392E-34 -0.1779037686E-35 -0.6282579580E-32 -0.2713519932E-29  0.5158713680E-35 -0.9439412121E-36  0.3726297769E-35  0.1384246937E-35 -0.4476783002E-35  0.1526713648E-35  0.1415083175E-29 -0.6572785528E-35  0.1547240294E-36  0.5426986800E-35
46 -0.2893912613E-42 -0.2068489030E-41 -0.8121221753E-42 -0.9022879054E-42 -0.1045747217E-41  0.1415022928E-29  0.3312760055E-31 -0.6283524061E-32 -0.2713516144E-29  0.6542961364E-35  0.0000000000E+00 -0.1104956901E-34  0.1681437815E-35  0.1415088580E-29  0.1415081020E-29  0.3312937959E-31 -0.5809222411E-34 -0.1779038132E-35 -0.6282580119E-32 -0.2713519871E-29  0.5158713637E-35 -0.9439411670E-36  0.3726298119E-35  0.1384247727E-35 -0.4476783039E-35  0.1526713617E-35  0.1415083153E-29 -0.6572785973E-35  0.1547241980E-36  0.5426986666E-35
47 -0.1981780839E-42 -0.1319503207E-41 -0.4433742199E-42 -0.4937482602E-42 -0.6059070532E-42  0.1415022912E-29  0.3312760101E-31 -0.6283524038E-32 -0.2713516103E-29  0.6542962102E-35  0.0000000000E+00 -0.1104956936E-34  0.1681437949E-35  0.1415088564E-29  0.1415081004E-29  0.3312938005E-31 -0.5809222424E-34 -0.1779038465E-35 -0.6282580096E-32 -0.2713519829E-29  0.5158713588E-35 -0.9439411045E-36  0.3726298355E-35  0.1384248514E-35 -0.4476783058E-35  0.1526713591E-35  0.1415083137E-29 -0.6572786306E-35  0.1547243586E-36  0.5426986580E-35
48 -0.1419844267E-42 -0.8741952886E-42 -0.2440942041E-42 -0.2940089686E-42 -0.3558667988E-42  0.1415022902E-29  0.3312760134E-31 -0.6283523708E-32 -0.2713516075E-29  0.6542962754E-35  0.0000000000E+00 -0.1104956961E-34  0.1681438064E-35  0.1415088554E-29  0.1415080994E-29  0.3312938038E-31 -0.5809222432E-34 -0.1779038703E-35 -0.6282579767E-32 -0.2713519801E-29  0.5158713539E-35 -0.9439410397E-36  0.3726298516E-35  0.1384249215E-35 -0.4476783065E-35  0.1526713570E-35  0.1415083127E-29 -0.6572786545E-35  0.1547244947E-36  0.5426986525E-35
49 -0.1072596836E-42 -0.5964459320E-42 -0.1378505164E-42 -0.2000701701E-42 -0.2211796268E-42  0.1415022895E-29  0.3312760157E-31 -0.6283523232E-32 -0.2713516057E-29  0.6542963287E-35  0.0000000000E+00 -0.1104956978E-34  0.1681438154E-35  0.1415088547E-29  0.1415080987E-29  0.3312938061E-31 -0.5809222438E-34 -0.1779038871E-35 -0.6282579291E-32 -0.2713519784E-29  0.5158713493E-35 -0.9439409810E-36  0.3726298632E-35  0.1384249794E-35 -0.4476783066E-35  0.1526713552E-35  0.1415083120E-29 -0.6572786713E-35  0.1547246011E-36  0.5426986490E-35
50 -0.8355039045E-43 -0.4167101881E-42 -0.8048516215E-43 -0.1495184145E-42 -0.1542347828E-42  0.1415022890E-29  0.3312760175E-31 -0.6283522714E-32 -0.2713516046E-29  0.6542963698E-35  0.0000000000E+00 -0.1104956989E-34  0.1681438218E-35  0.1415088542E-29  0.1415080982E-29  0.3312938079E-31 -0.5809222441E-34 -0.1779038987E-35 -0.6282578773E-32 -0.2713519772E-29  0.5158713454E-35 -0.9439409326E-36  0.3726298721E-35  0.1384250244E-35 -0.4476783064E-35  0.1526713539E-35  0.1415083115E-29 -0.6572786830E-35  0.1547246788E-36  0.5426986465E-35
51 -0.6543709975E-43 -0.2980217753E-42 -0.4891384689E-43 -0.1143837356E-42 -0.1237030181E-42  0.1415022887E-29  0.3312760188E-31 -0.6283522221E-32 -0.2713516039E-29  0.6542963998E-35  0.0000000000E+00 -0.1104956997E-34  0.1681438261E-35  0.1415088539E-29  0.1415080979E-29  0.3312938092E-31 -0.5809222444E-34 -0.1779039068E-35 -0.6282578280E-32 -0.2713519765E-29  0.5158713421E-35 -0.9439408954E-36  0.3726298790E-35  0.1384250577E-35 -0.4476783062E-35  0.1526713529E-35  0.1415083112E-29 -0.6572786911E-35  0.1547247320E-36  0.5426986447E-35
52 -0.5115441203E-43 -0.2185210565E-42 -0.3123321108E-43 -0.8587116517E-43 -0.1097892359E-42  0.1415022885E-29  0.3312760198E-31 -0.6283521791E-32 -0.2713516034E-29  0.6542964207E-35  0.0000000000E+00 -0.1104957003E-34  0.1681438287E-35  0.1415088537E-29  0.1415080977E-29  0.3312938102E-31 -0.5809222446E-34 -0.1779039123E-35 -0.6282577850E-32 -0.2713519760E-29  0.5158713396E-35 -0.9439408683E-36  0.3726298843E-35  0.1384250811E-35 -0.4476783060E-35  0.1526713521E-35  0.1415083110E-29 -0.6572786968E-35  0.1547247662E-36  0.5426986433E-35
53 -0.4013191939E-43 -0.1641305126E-42 -0.2095646389E-43 -0.6281722429E-43 -0.1014288051E-42  0.1415022884E-29  0.3312760205E-31 -0.6283521437E-32 -0.2713516030E-29  0.6542964346E-35  0.0000000000E+00 -0.1104957006E-34  0.1681438302E-35  0.1415088536E-29  0.1415080976E-29  0.3312938109E-31 -0.5809222448E-34 -0.1779039161E-35 -0.6282577496E-32 -0.2713519757E-29  0.5158713376E-35 -0.9439408497E-36  0.3726298881E-35  0.1384250970E-35 -0.4476783058E-35  0.1526713515E-35  0.1415083109E-29 -0.6572787006E-35  0.1547247868E-36  0.5426986423E-35
54 -0.3175027873E-43 -0.1256122764E-42 -0.1444223096E-43 -0.4552185282E-43 -0.9345311336E-43  0.1415022883E-29  0.3312760211E-31 -0.6283521159E-32 -0.2713516028E-29  0.6542964435E-35  0.0000000000E+00 -0.1104957009E-34  0.1681438309E-35  0.1415088535E-29  0.1415080975E-29  0.3312938115E-31 -0.5809222449E-34 -0.1779039185E-35 -0.6282577219E-32 -0.2713519754E-29  0.5158713361E-35 -0.9439408374E-36  0.3726298907E-35  0.1384251074E-35 -0.4476783058E-35  0.1526713511E-35  0.1415083108E-29 -0.6572787030E-35  0.1547247984E-36  0.5426986416E-35