TITLE="fun3d_case_title"
VARIABLES="Iteration" "R_1" "R_2" "R_3" "R_4" "R_5" "C_L" "C_D" "C_M_x" "C_M_y" "C_M_z" "Wall Time" "C_x" "C_y" "C_z" "C_Lp" "C_Dp" "C_Lv" "C_Dv" "C_M_xp" "C_M_yp" "C_M_zp" "C_M_xv" "C_M_yv" "C_M_zv" "C_xp" "C_yp" "C_zp" "C_xv" "C_yv" "C_zv"
ZONE  I=9 F=POINT
1  0.3909342814E-04  0.1954671407E-04  0.1598037847E-17  0.1103962378E-17  0.1026202489E-03 -0.1013543631E-02  0.1517851884E+00 -0.8725850299E+00  0.7900734646E-01  0.4383521608E+01  0.1170430000E+02  0.1517851884E+00  0.1745811650E+01 -0.1013543631E-02 -0.1013543631E-02  0.1517851884E+00  0.0000000000E+00  0.0000000000E+00 -0.8725850299E+00  0.7900734646E-01  0.4383521608E+01  0.0000000000E+00  0.0000000000E+00  0.0000000000E+00  0.1517851884E+00  0.1745811650E+01 -0.1013543631E-02  0.0000000000E+00  0.0000000000E+00  0.0000000000E+00
2  0.1136747110E-04  0.4506347267E-05  0.1645920498E-04  0.7749596183E-06  0.2935810100E-04 -0.6419291428E-03  0.1344183694E+00 -0.7731604200E+00  0.7151297432E-01  0.3884492388E+01  0.2335590000E+02  0.1344183694E+00  0.1547638508E+01 -0.6419291428E-03 -0.6419291428E-03  0.1344183694E+00  0.0000000000E+00  0.0000000000E+00 -0.7731604200E+00  0.7151297432E-01  0.3884492388E+01  0.0000000000E+00  0.0000000000E+00  0.0000000000E+00  0.1344183694E+00  0.1547638508E+01 -0.6419291428E-03  0.0000000000E+00  0.0000000000E+00  0.0000000000E+00
3  0.8530297966E-05  0.6421111595E-05  0.1017246153E-04  0.8399050500E-06  0.2183861241E-04  0.1154849563E-02  0.9372199635E-01 -0.5658661490E+00  0.4362996866E-01  0.2587057543E+01  0.3539620000E+02  0.9372199635E-01  0.1130901016E+01  0.1154849563E-02  0.1154849563E-02  0.9372199635E-01  0.0000000000E+00  0.0000000000E+00 -0.5658661490E+00  0.4362996866E-01  0.2587057543E+01  0.0000000000E+00  0.0000000000E+00  0.0000000000E+00  0.9372199635E-01  0.1130901016E+01  0.1154849563E-02  0.0000000000E+00  0.0000000000E+00  0.0000000000E+00
4  0.4102686478E-05  0.5731622398E-05  0.3985259170E-05  0.5927844862E-06  0.1138002629E-04  0.1090390919E-02  0.7990039286E-01 -0.5728504204E+00  0.3674814212E-01  0.2218206623E+01  0.4744240000E+02  0.7990039286E-01  0.1143440683E+01  0.1090390919E-02  0.1090390919E-02  0.7990039286E-01  0.0000000000E+00  0.0000000000E+00 -0.5728504204E+00  0.3674814212E-01  0.2218206623E+01  0.0000000000E+00  0.0000000000E+00  0.0000000000E+00  0.7990039286E-01  0.1143440683E+01  0.1090390919E-02  0.0000000000E+00  0.0000000000E+00  0.0000000000E+00
5  0.3648159531E-05  0.4434828125E-05  0.3825267971E-05  0.5144161910E-06  0.1029136655E-04  0.7869501335E-03  0.6637830385E-01 -0.5534097307E+00  0.3062447915E-01  0.1877160920E+01  0.5586470000E+02  0.6637830385E-01  0.1104828209E+01  0.7869501335E-03  0.7869501335E-03  0.6637830385E-01  0.0000000000E+00  0.0000000000E+00 -0.5534097307E+00  0.3062447915E-01  0.1877160920E+01  0.0000000000E+00  0.0000000000E+00  0.0000000000E+00  0.6637830385E-01  0.1104828209E+01  0.7869501335E-03  0.0000000000E+00  0.0000000000E+00  0.0000000000E+00
6  0.2424945506E-05  0.2962437359E-05  0.3186269916E-05  0.3763750560E-06  0.6796184372E-05  0.4617945675E-03  0.6003313253E-01 -0.5336617942E+00  0.2857981843E-01  0.1723913149E+01  0.6646230000E+02  0.6003313253E-01  0.1066525079E+01  0.4617945675E-03  0.4617945675E-03  0.6003313253E-01  0.0000000000E+00  0.0000000000E+00 -0.5336617942E+00  0.2857981843E-01  0.1723913149E+01  0.0000000000E+00  0.0000000000E+00  0.0000000000E+00  0.6003313253E-01  0.1066525079E+01  0.4617945675E-03  0.0000000000E+00  0.0000000000E+00  0.0000000000E+00
7  0.1782964202E-05  0.1849795335E-05  0.2161607737E-05  0.3274235254E-06  0.4865366989E-05 -0.1069925129E-04  0.5983404855E-01 -0.5196207148E+00  0.2992159576E-01  0.1718790261E+01  0.7488360000E+02  0.5983404855E-01  0.1039607333E+01 -0.1069925129E-04 -0.1069925129E-04  0.5983404855E-01  0.0000000000E+00  0.0000000000E+00 -0.5196207148E+00  0.2992159576E-01  0.1718790261E+01  0.0000000000E+00  0.0000000000E+00  0.0000000000E+00  0.5983404855E-01  0.1039607333E+01 -0.1069925129E-04  0.0000000000E+00  0.0000000000E+00  0.0000000000E+00
8  0.1305973202E-05  0.1476590076E-05  0.1868338834E-05  0.2832466125E-06  0.3437873793E-05 -0.1441590125E-03  0.6348485605E-01 -0.5143838821E+00  0.3220908771E-01  0.1797397409E+01  0.8548150000E+02  0.6348485605E-01  0.1029303664E+01 -0.1441590125E-03 -0.1441590125E-03  0.6348485605E-01  0.0000000000E+00  0.0000000000E+00 -0.5143838821E+00  0.3220908771E-01  0.1797397409E+01  0.0000000000E+00  0.0000000000E+00  0.0000000000E+00  0.6348485605E-01  0.1029303664E+01 -0.1441590125E-03  0.0000000000E+00  0.0000000000E+00  0.0000000000E+00
9  0.1097130640E-05  0.1335141821E-05  0.1605357737E-05  0.2434080127E-06  0.2857046377E-05 -0.5655179680E-04  0.6717921715E-01 -0.5097477152E+00  0.3376190548E-01  0.1852973458E+01  0.9369850000E+02  0.6717921715E-01  0.1019520269E+01 -0.5655179680E-04 -0.5655179680E-04  0.6717921715E-01  0.0000000000E+00  0.0000000000E+00 -0.5097477152E+00  0.3376190548E-01  0.1852973458E+01  0.0000000000E+00  0.0000000000E+00  0.0000000000E+00  0.6717921715E-01  0.1019520269E+01 -0.5655179680E-04  0.0000000000E+00  0.0000000000E+00  0.0000000000E+00
